Gaussian input                                                          
SP        RPBE1PBE                                                    def2TZVP            
Number of atoms                            I                3
Info1-9                                    I   N=           9
          12          12           0           0           0         110
           1          18        -302
Charge                                     I                0
Multiplicity                               I                1
Number of electrons                        I               10
Number of alpha electrons                  I                5
Number of beta electrons                   I                5
Number of basis functions                  I               43
Number of independent functions            I               43
Number of point charges in /Mol/           I                0
Number of translation vectors              I                0
Atomic numbers                             I   N=           3
           8           1           1
Nuclear charges                            R   N=           3
  8.00000000E+00  1.00000000E+00  1.00000000E+00
Current cartesian coordinates              R   N=           9
 -1.07772593E-02  7.27844498E-01  0.00000000E+00 -1.50436934E+00 -3.67882435E-01
  0.00000000E+00  1.51514651E+00 -3.59962026E-01  0.00000000E+00
Force Field                                I                0
Int Atom Types                             I   N=           3
           0           0           0
MM charges                                 R   N=           3
  0.00000000E+00  0.00000000E+00  0.00000000E+00
Integer atomic weights                     I   N=           3
          16           1           1
Real atomic weights                        R   N=           3
  1.59949146E+01  1.00782504E+00  1.00782504E+00
Atom fragment info                         I   N=           3
           0           0           0
Atom residue num                           I   N=           3
           0           0           0
Nuclear spins                              I   N=           3
           0           1           1
Nuclear ZEff                               R   N=           3
 -5.60000000E+00 -1.00000000E+00 -1.00000000E+00
Nuclear ZNuc                               R   N=           3
  8.00000000E+00  1.00000000E+00  1.00000000E+00
Nuclear QMom                               R   N=           3
  0.00000000E+00  0.00000000E+00  0.00000000E+00
Nuclear GFac                               R   N=           3
  0.00000000E+00  2.79284600E+00  2.79284600E+00
MicOpt                                     I   N=           3
          -1          -1          -1
Number of contracted shells                I               19
Number of primitive shells                 I               32
Pure/Cartesian d shells                    I                0
Pure/Cartesian f shells                    I                0
Highest angular momentum                   I                3
Largest degree of contraction              I                6
Shell types                                I   N=          19
           0           0           0           0           0           1
           1           1          -2          -2          -3           0
           0           0           1           0           0           0
           1
Number of primitives per shell             I   N=          19
           6           2           1           1           1           4
           1           1           1           1           1           3
           1           1           1           3           1           1
           1
Shell to atom map                          I   N=          19
           1           1           1           1           1           1
           1           1           1           1           1           2
           2           2           2           3           3           3
           3
Primitive exponents                        R   N=          32
  2.70323826E+04  4.05238714E+03  9.22327227E+02  2.61240710E+02  8.53546414E+01
  3.10350352E+01  1.22608607E+01  4.99870760E+00  1.17031082E+00  4.64747410E-01
  1.85045364E-01  6.32749548E+01  1.46270494E+01  4.45012235E+00  1.52757996E+00
  5.29351179E-01  1.74784213E-01  2.31400000E+00  6.45000000E-01  1.42800000E+00
  3.40613410E+01  5.12357460E+00  1.16466260E+00  3.27230410E-01  1.03072410E-01
  8.00000000E-01  3.40613410E+01  5.12357460E+00  1.16466260E+00  3.27230410E-01
  1.03072410E-01  8.00000000E-01
Contraction coefficients                   R   N=          32
  5.72273352E-04  4.43532335E-03  2.30201077E-02  9.28224907E-02  2.93785000E-01
  6.74016045E-01  6.38399370E-01  3.95345871E-01  1.00000000E+00  1.00000000E+00
  1.00000000E+00  1.20183322E-02  8.30054218E-02  3.19917439E-01  7.07155429E-01
  1.00000000E+00  1.00000000E+00  1.00000000E+00  1.00000000E+00  1.00000000E+00
  2.54393072E-02  1.90085949E-01  8.52441130E-01  1.00000000E+00  1.00000000E+00
  1.00000000E+00  2.54393072E-02  1.90085949E-01  8.52441130E-01  1.00000000E+00
  1.00000000E+00  1.00000000E+00
Coordinates of each shell                  R   N=          57
 -1.07772593E-02  7.27844498E-01  0.00000000E+00 -1.07772593E-02  7.27844498E-01
  0.00000000E+00 -1.07772593E-02  7.27844498E-01  0.00000000E+00 -1.07772593E-02
  7.27844498E-01  0.00000000E+00 -1.07772593E-02  7.27844498E-01  0.00000000E+00
 -1.07772593E-02  7.27844498E-01  0.00000000E+00 -1.07772593E-02  7.27844498E-01
  0.00000000E+00 -1.07772593E-02  7.27844498E-01  0.00000000E+00 -1.07772593E-02
  7.27844498E-01  0.00000000E+00 -1.07772593E-02  7.27844498E-01  0.00000000E+00
 -1.07772593E-02  7.27844498E-01  0.00000000E+00 -1.50436934E+00 -3.67882435E-01
  0.00000000E+00 -1.50436934E+00 -3.67882435E-01  0.00000000E+00 -1.50436934E+00
 -3.67882435E-01  0.00000000E+00 -1.50436934E+00 -3.67882435E-01  0.00000000E+00
  1.51514651E+00 -3.59962026E-01  0.00000000E+00  1.51514651E+00 -3.59962026E-01
  0.00000000E+00  1.51514651E+00 -3.59962026E-01  0.00000000E+00  1.51514651E+00
 -3.59962026E-01  0.00000000E+00
Constraint Structure                       R   N=           9
 -1.07772593E-02  7.27844498E-01  0.00000000E+00 -1.50436934E+00 -3.67882435E-01
  0.00000000E+00  1.51514651E+00 -3.59962026E-01  0.00000000E+00
Num ILSW                                   I              100
ILSW                                       I   N=         100
           0           0           0           0           2           0
           0           0           0           0        1009          -1
           0           0           0           0           0           0
           0           0           0           0           0           0
           1           1           0           0           0           0
           0           0      100000           0          -1           0
           0           0           0           0           0           0
           0           0           0           1           0           0
           0           0           1           0           0           0
           0           0           4          41           0           0
           0           0          13           0           0           0
           0           0           0           3           0           0
           0           0           0           0           0           0
           0           0           0           0           0           0
           0           0           0           0           0           0
           0           0           0           0           0           0
           0           0           0           0
Num RLSW                                   I               41
RLSW                                       R   N=          41
  7.50000000E-01  7.50000000E-01  1.00000000E+00  1.00000000E+00  2.50000000E-01
  0.00000000E+00  0.00000000E+00  1.00000000E+00  0.00000000E+00  0.00000000E+00
  0.00000000E+00  0.00000000E+00  1.00000000E+00  0.00000000E+00  0.00000000E+00
  0.00000000E+00  0.00000000E+00  1.00000000E+00  0.00000000E+00  0.00000000E+00
  0.00000000E+00  0.00000000E+00  1.00000000E+00  0.00000000E+00  0.00000000E+00
  0.00000000E+00  0.00000000E+00  1.00000000E+00  0.00000000E+00  0.00000000E+00
  0.00000000E+00  0.00000000E+00  1.00000000E+00  0.00000000E+00  0.00000000E+00
  0.00000000E+00  0.00000000E+00  0.00000000E+00  1.00000000E+00  1.00000000E+00
  0.00000000E+00
ECP-MxAtEC                                 I           250000
ECP-MaxLECP                                I               10
ECP-MaxAtL                                 I          2250000
ECP-MxTECP                                 I         11250000
ECP-LenNCZ                                 I                0
ECP-KFirst                                 I   N=          30
           0           0           0           0           0           0
           0           0           0           0           0           0
           0           0           0           0           0           0
           0           0           0           0           0           0
           0           0           0           0           0           0
ECP-KLast                                  I   N=          30
           0           0           0           0           0           0
           0           0           0           0           0           0
           0           0           0           0           0           0
           0           0           0           0           0           0
           0           0           0           0           0           0
ECP-LMax                                   I   N=           3
           0           0           0
ECP-LPSkip                                 I   N=           3
           1           1           1
ECP-RNFroz                                 R   N=           3
  0.00000000E+00  0.00000000E+00  0.00000000E+00
ECP-NLP                                    I                0
ECP-CLP1                                   R      0.000000000000000E+00
ECP-CLP2                                   R      0.000000000000000E+00
ECP-ZLP                                    R      0.000000000000000E+00
MxBond                                     I                2
NBond                                      I   N=           3
           2           1           1
IBond                                      I   N=           6
           2           3           1           0           1           0
RBond                                      R   N=           6
  1.00000000E+00  1.00000000E+00  1.00000000E+00  0.00000000E+00  1.00000000E+00
  0.00000000E+00
Virial Ratio                               R      2.004742419011660E+00
SCF Energy                                 R     -7.637558959686109E+01
Total Energy                               R     -7.637558959686109E+01
RMS Density                                R      5.656435598858195E-09
External E-field                           R   N=          35
  0.00000000E+00  0.00000000E+00  0.00000000E+00  0.00000000E+00  0.00000000E+00
  0.00000000E+00  0.00000000E+00  0.00000000E+00  0.00000000E+00  0.00000000E+00
  0.00000000E+00  0.00000000E+00  0.00000000E+00  0.00000000E+00  0.00000000E+00
  0.00000000E+00  0.00000000E+00  0.00000000E+00  0.00000000E+00  0.00000000E+00
  0.00000000E+00  0.00000000E+00  0.00000000E+00  0.00000000E+00  0.00000000E+00
  0.00000000E+00  0.00000000E+00  0.00000000E+00  0.00000000E+00  0.00000000E+00
  0.00000000E+00  0.00000000E+00  0.00000000E+00  0.00000000E+00  0.00000000E+00
IOpCl                                      I                0
IROHF                                      I                0
Alpha Orbital Energies                     R   N=          43
 -1.92044999E+01 -1.02530967E+00 -5.41871087E-01 -3.93935128E-01 -3.23830886E-01
  2.68395391E-02  1.00917082E-01  3.71625145E-01  4.06242308E-01  4.45655517E-01
  4.48864133E-01  5.82399073E-01  6.08429236E-01  1.18449860E+00  1.19692728E+00
  1.31184898E+00  1.55353205E+00  1.64003118E+00  1.72628713E+00  2.01506135E+00
  2.03256312E+00  2.11352120E+00  2.30086049E+00  2.41998758E+00  2.54715646E+00
  2.58893855E+00  2.63238903E+00  2.78403906E+00  3.59958619E+00  3.92377428E+00
  5.12280450E+00  5.19888185E+00  5.38135654E+00  5.39390370E+00  5.49519458E+00
  5.93144821E+00  6.18820925E+00  6.32207540E+00  6.39689300E+00  6.41194137E+00
  6.90597240E+00  6.97601703E+00  4.33623902E+01
Alpha MO coefficients                      R   N=        1849
  4.35376534E-01  6.39864051E-01  3.26779189E-02 -2.03786581E-02  8.14847476E-03
  8.55224925E-06 -1.75519550E-03 -2.71645586E-17 -1.94442944E-05  2.72092191E-03
 -7.57442788E-18 -1.08938524E-05 -9.87226467E-04 -2.37592951E-17 -1.82073110E-04
  6.08613911E-17  4.40818063E-18  8.73385095E-05  4.40598267E-07  8.53826708E-04
 -2.86426783E-17  7.13096643E-18 -4.35668198E-04  5.59010088E-06  5.79339640E-18
  3.64727750E-06 -1.62149396E-04  8.78457080E-19  4.86246622E-18 -5.97070460E-06
  3.30019642E-04  7.52574168E-04  1.50500299E-03 -1.71702891E-03  8.67090015E-04
  6.03881380E-04 -1.20158476E-17  7.37725693E-04  1.50632031E-03 -1.66754084E-03
 -9.03043170E-04  6.14217136E-04  1.96771385E-17 -9.77772870E-02 -2.30715046E-01
  3.31500613E-01  4.54343831E-01  1.60002807E-01 -1.46407741E-03 -7.63592291E-02
 -5.93905954E-17 -5.58649205E-04 -6.96533543E-02  1.09184821E-16 -5.08917515E-06
 -1.10586998E-02 -2.83793556E-17 -4.05392518E-03 -6.12668851E-17  4.21962547E-17
  1.35717538E-03  1.81089920E-04 -1.18734210E-02  4.43731390E-17 -2.81938865E-17
  2.72553580E-03  6.41080726E-05  7.25175923E-17  3.85864432E-05  2.42194546E-03
 -2.31709939E-17 -6.11706399E-17  9.94864013E-05 -3.97334308E-03  8.97026815E-02
  6.89787203E-02  6.57900715E-03  1.43313305E-02  7.77366724E-03  2.58480062E-17
  8.67742152E-02  6.74307066E-02  6.31792138E-03 -1.40556372E-02  7.25846604E-03
 -2.35794394E-17 -5.52854607E-04 -1.30726461E-03  1.70169775E-03  3.89543201E-03
  3.56263778E-03  3.76571897E-01  4.58657300E-03 -5.18536978E-17  3.05343235E-01
  3.00943742E-03 -2.94024734E-18  1.21313155E-01  1.29477622E-03  9.10249220E-17
  8.98081738E-05  9.50445401E-18  3.95297955E-17  8.52885096E-05 -1.10712147E-02
 -4.00971245E-05  7.66441711E-17 -9.72726217E-18  4.25270336E-04 -2.68781716E-02
  1.04460938E-16 -5.19328756E-03 -5.73270456E-05  2.06539845E-17  8.59361158E-17
  6.33686338E-04  5.45638852E-05 -1.45135195E-01 -1.85998100E-01 -6.22060157E-02
 -8.53995987E-03 -1.63921971E-02  6.39850525E-17  1.44236044E-01  1.86123237E-01
  6.28553905E-02 -8.72311994E-03  1.61601270E-02 -7.84531122E-17 -3.49748239E-02
 -8.40939447E-02  1.32010876E-01  1.87506240E-01  2.08966713E-01 -3.77854229E-03
  4.13912255E-01  9.73361659E-17 -3.57210331E-03  3.33903963E-01 -2.37977132E-16
 -2.17830294E-03  2.41056876E-01 -1.60563237E-17  4.16608069E-03 -3.64007705E-16
 -9.81403707E-17  2.25811896E-03 -2.28810343E-05  1.35201193E-02  2.14502704E-16
  7.08484337E-17  2.25005187E-02  3.63979920E-04 -1.26571959E-16  3.80526064E-05
 -3.46228004E-03  5.64829275E-17  4.35544988E-17 -7.72513408E-05  2.01830086E-03
 -8.45281430E-02 -1.20182103E-01 -4.40389685E-02 -1.58830848E-02  1.06827065E-02
  5.68928386E-17 -8.53866295E-02 -1.22433400E-01 -4.60728124E-02  1.56742553E-02
  1.07087625E-02 -2.26112707E-17  3.17990823E-17  6.01923486E-17  1.64226231E-16
 -1.58271542E-15  2.98353173E-15  9.09750038E-17  4.25213482E-17  4.71638322E-01
  1.69094872E-16 -1.25559919E-16  3.92761068E-01 -1.01692241E-15 -2.13822664E-16
  3.33530930E-01  2.86995209E-17 -4.84671600E-05 -4.00702741E-03 -8.67739708E-18
 -1.46906093E-17 -1.84307628E-16  5.28923996E-05 -2.61761732E-02 -1.07183770E-16
  7.22722582E-17 -5.17713841E-03  2.07816169E-18  1.34321326E-17  1.75967198E-03
  5.57680331E-05  8.90626090E-20 -2.68785564E-17 -4.80197226E-18 -3.94736556E-16
 -1.38582753E-15 -6.53339004E-17 -6.95856141E-17  2.54615226E-02  1.68371069E-16
  6.23024074E-17 -3.66578674E-16  2.99284841E-16  6.38603457E-17  2.51757353E-02
 -3.36526591E-02 -8.51199214E-02  1.90159550E-01 -2.58748125E-02  1.14862196E+00
  7.35892239E-03 -1.62103864E-01 -3.10395653E-17  6.39862667E-03 -1.21847921E-01
 -8.30457476E-17  1.36750336E-02 -3.31015799E-01 -2.14256464E-17  1.06175967E-03
 -2.01770062E-16 -3.64692604E-17 -2.48800530E-03  8.04806782E-05  1.17823112E-03
  1.37060891E-16  1.74803487E-16 -1.16157288E-02 -3.51877666E-04 -1.73376029E-16
 -4.99539764E-05  1.00030515E-03 -5.20474437E-17 -5.69831629E-17  8.49338346E-05
 -4.68286745E-04 -4.40740145E-02 -9.86462683E-02 -9.08251833E-01  2.70722876E-02
  1.55881822E-02  1.80748887E-16 -4.79431332E-02 -1.06459827E-01 -9.41413864E-01
 -2.70959790E-02  1.57155893E-02  9.47714725E-17  5.11098824E-04  1.37180143E-03
 -4.32484384E-03  6.71448439E-03 -3.27132438E-02  2.53650033E-01  2.52488329E-03
  2.68652601E-16  1.28384589E-01 -3.19789145E-04 -2.37043546E-16  6.93153083E-01
  8.77092960E-03 -5.63780385E-17  5.56080725E-05  5.61258760E-17  4.19651872E-17
 -7.22166500E-05  1.66563995E-03 -3.29710576E-04  6.47202399E-17  7.11120930E-17
 -1.46831797E-04  1.91837788E-02 -3.19702702E-17 -2.72787974E-04 -1.66430275E-06
 -3.72142513E-17  2.72467746E-17  2.84458997E-03  5.31359226E-05  3.70474549E-02
  2.98488222E-02  1.59426944E+00 -3.40938248E-02 -3.10353883E-02  1.35069455E-16
 -3.89858849E-02 -3.69652574E-02 -1.54718806E+00 -3.26803147E-02  2.88652947E-02
 -5.55620911E-18  1.87018814E-03  4.19230897E-03 -1.57839886E-03 -3.16286702E-02
  8.90450207E-03 -1.26740052E-01  8.62266785E-03 -5.61957162E-16 -3.48812628E-01
  1.25675435E-02 -9.33731996E-16 -1.13195632E+00  1.91674815E-02  1.46173153E-15
 -9.24864906E-04  1.67936685E-17  2.56914799E-16  1.08485444E-03 -3.14074648E-02
  3.53535403E-04 -1.76923757E-16  5.38280532E-16 -3.08198751E-04  1.09825965E-01
 -1.12130662E-16  1.19031881E-02 -8.51442761E-05 -1.17964779E-16 -6.15195348E-17
  2.34373000E-03  4.52621181E-04 -1.09473572E-01 -1.34692082E+00  5.48941930E-01
 -8.60606307E-02 -2.89394348E-02 -1.38538083E-16  1.23652905E-01  1.50736484E+00
 -6.55975644E-01 -8.64183612E-02  3.15320174E-02  4.09866617E-16  3.40051886E-02
  7.53601836E-02  1.38752194E-02 -7.73770012E-01 -4.66426842E-01  4.28134279E-03
  4.70623512E-02  2.76999229E-15  2.52427431E-02  1.57591106E-01  5.35131673E-15
  9.89767357E-02  1.01810292E+00 -1.03311763E-14 -1.86319445E-02  8.03381000E-19
 -1.70030133E-16  9.36670740E-03  2.41709947E-03  5.55439708E-02  6.63002210E-17
  5.07748808E-16 -5.32010565E-04 -1.16688358E-02 -1.91142348E-16 -1.03142887E-03
 -6.47848816E-03 -2.78666251E-16 -1.90413360E-16 -6.14553087E-04  1.43584504E-02
  1.14888600E-01  1.64612256E+00 -5.95128660E-01  5.88679740E-02  7.05570628E-02
  8.14545493E-18  1.00647674E-01  1.43888866E+00 -5.77443994E-01 -4.21000755E-02
  6.15789801E-02 -2.59719853E-18  2.10341123E-16  5.15875701E-16  7.98555408E-17
 -8.69664041E-15  1.46736141E-14  4.39782600E-16  1.78928531E-14 -3.13115978E-01
 -3.78881600E-16  3.90621966E-14 -7.06671286E-01  5.67007624E-15 -5.55534148E-14
  1.23574304E+00 -1.51639547E-17  3.90314969E-05  6.30479445E-03  4.90451674E-16
  7.40172271E-17 -9.33628855E-16  1.04817628E-04 -7.15060785E-03  4.31627909E-16
  1.15273371E-16  1.93122474E-03  7.99599238E-18 -8.72489384E-17 -8.13158072E-04
 -5.01445436E-06  7.01089864E-18  9.43891882E-17  4.36283912E-15  2.71193550E-14
 -2.86962648E-14 -1.13111016E-15  1.26153822E-16 -2.41039351E-03  3.37489888E-15
  1.97618648E-14 -2.95610762E-14  1.01099015E-15  8.33850154E-16 -1.46961130E-03
  6.50715492E-03  1.31507648E-02  5.30388116E-03 -1.50597384E-01  4.69854246E-02
  8.04409263E-04 -3.29794298E-01 -1.59402472E-14 -3.89298086E-03 -7.26002391E-01
 -3.72699461E-14 -4.40858407E-02  1.13623638E+00  6.50093457E-14 -1.40292874E-03
 -1.60265158E-16  2.94643945E-16 -7.89677343E-03 -8.75903616E-04  1.50819048E-02
 -2.50371434E-16 -2.77456426E-16 -3.00365263E-03  4.13810521E-03  1.04333558E-16
  4.90470658E-04  1.29870965E-03  1.93151142E-18  6.35607198E-17  1.87204237E-04
 -1.73635113E-03 -5.16014937E-02 -3.09533160E-01  3.87369549E-01  1.21327136E-02
 -6.48634685E-03 -1.13691977E-16 -4.73335941E-02 -2.38662762E-01  3.82423148E-01
 -1.86624021E-02 -2.72720128E-03  4.63589811E-16  1.08741261E-03  2.22617435E-03
  1.80692181E-03 -5.19351351E-02  1.30265738E-01 -3.45782808E-01 -1.75830192E-03
  1.34764414E-16 -7.40519004E-01 -1.01099193E-02  4.02686294E-18  2.08661100E+00
 -2.87757536E-02 -6.30822120E-16  7.07953647E-04 -1.63902205E-16  2.03811281E-18
 -4.77644108E-04  1.20193406E-02 -2.50050782E-03 -2.17580754E-16  3.39524197E-16
  1.30813022E-03 -6.51024139E-02  3.81276308E-16 -2.31170729E-03  3.61994055E-04
  5.57773941E-17 -1.82581057E-16 -2.62451031E-03 -9.17833226E-04 -5.77214826E-02
 -6.94270392E-02  1.52541330E+00  3.75570219E-02  2.76212167E-02  3.02800564E-16
  5.79175345E-02 -2.54995550E-02 -1.55515211E+00  4.44047193E-02 -3.41290256E-02
 -3.14901869E-16  5.19029881E-02  1.07934009E-01  1.05620431E-01 -2.28380648E+00
  4.65275959E+00  9.96213258E-03  7.73712833E-02  2.34809407E-15  1.85743015E-02
  3.71704266E-02  3.34012788E-15 -6.03846477E-02 -1.15727116E+00 -7.30516337E-15
  1.55860966E-02 -3.27896303E-16  4.05020859E-16 -6.86623292E-03 -3.53586403E-04
 -4.94098732E-02  1.72654251E-15 -3.43978116E-16  6.43556242E-03  2.63572529E-03
 -7.34233373E-17 -7.74873838E-05  4.64706087E-03  2.00622945E-16  1.05078276E-16
  2.44465338E-04 -1.13109773E-02  2.54657428E-02 -8.07262506E-01 -1.00998499E+00
 -5.02621635E-02 -6.66736289E-02 -6.09483310E-16  2.18098210E-02 -8.06796895E-01
 -8.84110739E-01  4.83317321E-02 -6.42263509E-02  1.13800537E-15 -2.35336211E-16
 -7.15732871E-16  2.28395544E-15  1.66278385E-15 -2.40302388E-15 -9.08766224E-18
 -1.02835710E-15 -5.08492571E-04 -1.88080199E-15 -1.33695883E-15  4.03400265E-03
  4.00265772E-15 -3.45674343E-15 -4.87613118E-03 -8.82502506E-19  8.02702904E-03
  1.59643296E-04  1.50343111E-16 -4.74019909E-17  1.31150268E-15  5.37493199E-01
 -3.57147374E-03  6.10483201E-15  1.16180855E-15 -4.44170562E-04 -2.52147030E-17
  2.92259475E-17 -8.37580627E-05  7.59542333E-03  4.13370261E-18 -2.28359697E-17
  5.62347486E-16 -5.03193526E-15  5.34866123E-15 -4.09926535E-15  4.99925364E-15
 -4.22091503E-01 -1.23473650E-16 -3.49017391E-15 -2.07168524E-16  1.80476535E-15
  3.33604297E-15  4.32436715E-01  3.79430206E-03  9.21409241E-03 -1.69511402E-02
 -1.70407449E-01  8.97427018E-01  6.40713647E-04 -8.37843813E-02  5.68509960E-16
 -3.19932093E-03 -9.28493514E-02  6.92694039E-16 -4.68174722E-03 -5.60242024E-01
 -4.47217551E-16 -1.39562584E-03  2.74103501E-17  1.21181916E-16  9.12630793E-03
  3.73764060E-07  1.81321459E-01 -6.85168465E-15 -1.00191706E-15  5.31906753E-01
  1.04652157E-02  5.60643040E-17  7.89905267E-05  2.87035967E-04 -9.51770518E-17
 -1.02991025E-16  9.00291246E-04 -7.45915267E-03  3.29200246E-02 -5.45751662E-01
 -5.32467663E-02 -2.62268148E-01  3.15324028E-01  3.25129994E-15  3.29375954E-02
 -5.25827187E-01 -4.78662890E-02  2.56713336E-01  3.26245619E-01 -6.01216427E-15
  3.77265499E-17  1.23393268E-16 -9.79531294E-16  1.59703487E-15  2.32610171E-15
 -4.37000844E-16  3.86805152E-17  9.72883691E-02  1.94468311E-15 -8.40795340E-16
  3.65029435E-02 -5.84013404E-16 -9.23281608E-16  2.17349327E-01  3.38899753E-17
  2.30036127E-04 -1.74782144E-04 -6.91242043E-19 -3.36129734E-17 -1.16128343E-15
  1.08888402E-03  6.84571116E-01  1.76626532E-16 -1.90427770E-15 -2.37772510E-03
 -4.79736438E-17  5.22523423E-17  1.28697305E-02  7.22567841E-04 -5.77092228E-17
 -1.34297690E-16 -5.58593722E-16  1.35518921E-15 -3.22214091E-15 -3.76802261E-17
 -1.08469133E-15 -3.85276917E-01  8.57121317E-16 -6.31631749E-15  3.63987767E-15
  8.52503826E-16 -1.35134384E-16 -3.77818689E-01 -2.75858065E-04 -1.28343511E-03
  2.04541728E-02 -7.29138187E-02 -5.69028005E-02 -9.09875462E-02 -4.80261994E-03
 -1.50937914E-15  7.05602773E-01  3.88877724E-02 -5.32188283E-17  1.01990268E+00
  3.22624647E-02  3.39120575E-17 -9.25779323E-05 -7.60430175E-17  5.14831417E-16
  1.20766921E-04  7.79667058E-03  2.30709021E-02  5.91860485E-16 -7.64251214E-16
  3.92261112E-03 -1.08961325E+00  1.00012265E-16 -4.33677837E-02 -2.01758351E-03
  2.37682082E-16  3.01979616E-16 -2.65849900E-02  3.48934599E-03 -3.60565237E-01
  2.01511529E+00 -4.16670980E-01  6.31709531E-02  4.37904517E-01  1.52417879E-15
  3.48167488E-01 -1.85710499E+00  4.07088885E-01  2.71422631E-02 -4.05645944E-01
  5.28795887E-16 -1.43898191E-02 -4.72543903E-02  3.23616723E-01 -4.55308532E-01
 -1.61652343E+00 -2.73714006E-03 -8.07744420E-02  3.13010979E-16  3.48897783E-02
  3.63949234E-01 -1.54215815E-15 -1.02979474E-02  8.26137612E-01  2.38177481E-15
 -6.44544884E-03 -1.40547766E-16  1.48775681E-17 -1.16385261E-03  5.23618027E-04
  1.07637785E+00  5.60821517E-16 -7.13728202E-16 -3.12025245E-01 -1.53080935E-02
 -4.21675599E-16 -1.71513206E-03 -3.01917359E-02  1.61240960E-16  2.13997824E-16
 -1.84961625E-03  4.54989689E-02 -3.33634376E-01  1.85261886E+00 -1.99111525E-01
  1.87926052E-01  7.62452622E-02 -1.94594286E-15 -3.39049840E-01  1.79330362E+00
 -1.94110355E-01 -1.33633447E-01  7.45703238E-02 -1.10508511E-15  1.65411516E-04
  2.73032423E-04  6.61550280E-03 -4.31718755E-02  2.69044425E-02 -1.77171504E-01
 -3.34900537E-03 -1.71882427E-15  4.68263065E-01  2.54235961E-02  1.74037534E-15
 -2.60017010E-01 -1.71980113E-02 -1.73754314E-15  1.65033522E-04  2.68935681E-17
 -2.24914575E-16 -6.07204773E-04  1.61390013E-02 -1.94372538E-02  3.65743987E-15
 -9.31948515E-16  5.73898758E-03 -6.19190063E-01 -3.74763427E-17 -3.07261248E-02
 -1.06326329E-03  8.91261730E-17 -1.17055980E-16 -2.21640848E-02  9.10567644E-04
 -2.04264632E-01  7.68453030E-01 -4.43638777E-01  6.04200743E-01 -4.40994055E-01
  1.99177817E-15  2.08556751E-01 -7.66573367E-01  4.36931086E-01  5.79726568E-01
  4.71667795E-01 -2.45938844E-16  1.31338934E-02  5.82009496E-02 -7.37601780E-01
  2.24877851E+00 -1.46001131E-01 -8.08451443E-04  4.01311916E-01 -1.70432288E-14
 -4.38688537E-02 -1.14522089E+00  1.13262091E-14  3.96162164E-03  1.07634333E-01
 -2.56633079E-14  5.45333161E-03  1.11510330E-16 -2.02950445E-16 -5.29783869E-03
  5.17769910E-04  1.35208485E-01 -4.52490300E-15  4.29056010E-14  3.78052134E-01
  3.86734254E-04 -3.40916283E-16  1.24898333E-03  6.10962171E-02  9.13944385E-17
  6.21558360E-17  3.11707029E-03 -1.42184682E-01  6.81197927E-01 -1.80394724E+00
  4.96570665E-01 -4.46146338E-01 -6.34499016E-01  3.38247821E-14  7.04633163E-01
 -1.75978599E+00  4.95925118E-01  4.15280647E-01 -5.74708587E-01  4.10013772E-14
 -2.34025730E-16 -1.35090579E-15  2.60567934E-14 -9.68470450E-14  4.23612486E-15
  7.89782362E-16 -2.26821290E-14 -2.81658621E-01  1.84252608E-14  5.79931087E-14
  1.39986780E-01  8.35336639E-16 -9.74897152E-15 -4.62924709E-01 -4.91167076E-17
  3.79742866E-04 -9.15917806E-03  2.93645379E-16  3.75907616E-16 -6.58273784E-15
 -6.32589333E-02  8.53424353E-01 -2.39320169E-14 -3.42955535E-15 -6.61076383E-03
 -1.31976452E-15 -2.85794631E-15  1.59713707E-02 -1.27233591E-03 -7.25371475E-16
  7.06380136E-15 -3.79856513E-14  1.05273117E-13 -2.87674709E-14  2.68906511E-14
  4.29461457E-14  7.02327209E-01 -3.28195484E-14  6.89701095E-14 -2.08348946E-14
 -6.92838177E-15  2.38860201E-14  7.79969775E-01 -2.02203025E-17  3.51138727E-17
 -1.04489154E-15  4.33053312E-15 -7.62097893E-15 -3.70482899E-15  3.11786639E-16
 -2.23723188E-02 -3.31093563E-14 -2.29460975E-16  7.01580820E-03 -9.87965559E-15
  5.64049334E-15 -2.92452300E-02 -3.46536126E-16 -1.20993929E-02 -8.52370336E-04
 -9.06771313E-16 -4.35451177E-16  7.94592755E-16  1.06905066E+00  5.97893248E-02
  9.75839208E-15  1.42630393E-14  3.98452998E-04  2.96851817E-15  1.40328617E-16
  3.75730383E-04  9.16099883E-03  1.09366896E-15  1.39458241E-17  5.23201309E-15
 -4.11491670E-14  8.75398452E-15 -1.81961666E-14 -2.15620740E-14  7.90276197E-01
 -9.75151401E-15  4.81048375E-14 -6.52866997E-15 -2.63269501E-14  1.02977546E-14
 -6.95616284E-01 -3.77913076E-04 -7.83246728E-04  5.00030933E-03 -4.32803348E-02
  2.63017457E-02 -3.37157526E-01 -1.55358930E-04  5.18683391E-15  2.06649009E+00
  2.40776174E-02 -6.93652149E-15 -2.09328261E-01 -5.25082965E-03  7.65240468E-15
  9.96453766E-04 -8.13018549E-18  3.85372233E-16 -1.10228596E-03  4.56579666E-02
 -2.87821038E-03  1.87604882E-14 -5.95557841E-15  2.45575384E-02 -1.90234671E-01
 -1.61326719E-16 -1.22832321E-01  2.28113203E-05  2.90905186E-17 -1.67959818E-16
 -5.66535782E-02 -2.53710164E-03 -5.12371456E-01  1.92826333E+00 -7.12808948E-01
  8.33835044E-01  7.55681298E-01  7.88128059E-15  5.61123763E-01 -1.96251859E+00
  7.18574200E-01  8.20853901E-01 -7.63235270E-01 -1.82088122E-14  1.86074519E-02
  7.15048378E-02 -6.69981539E-01  1.49068532E+00  5.02571801E-01  1.80834116E-02
 -4.05360768E-01  2.83922628E-15  9.26432146E-03 -1.15576404E-01 -1.14745696E-15
  2.77794070E-02 -8.03580480E-01  2.08899209E-15  1.39799062E-03 -3.53657723E-16
 -5.10693957E-16 -8.09735163E-03  1.60136631E-03 -2.04200170E-01  9.60875079E-15
 -5.26044226E-15 -8.99406741E-01 -2.67592108E-02  2.14675334E-16 -2.36385876E-03
  2.97420345E-02  1.65139231E-16 -3.62340348E-16  1.75454900E-03 -9.11425428E-02
  3.19087594E-01 -1.16926183E+00  1.04214026E-01 -8.18474844E-01  2.99591559E-01
  1.92911219E-15  3.35346379E-01 -1.22827097E+00  1.02682728E-01  8.38620490E-01
  2.73920192E-01 -1.09028212E-14  1.15319266E-02  3.37890540E-02 -1.06577107E-01
 -5.47802607E-02 -4.13015621E-01 -9.12425230E-01  1.43820396E-01 -2.72490462E-14
  8.03422998E-02 -1.22273218E-02  3.79216845E-14 -1.09453948E+00  1.46178783E-01
 -1.48449468E-14 -5.11377555E-03  3.24554480E-16 -1.75839707E-16  3.74456607E-03
 -3.56321829E-02  1.32088902E-01 -1.21641714E-14 -2.55862329E-15 -2.01559966E-01
  8.84416833E-01 -1.93919577E-16  4.56620484E-02 -1.04413712E-02 -9.11598168E-16
  6.87551208E-16  2.25208143E-02  1.78961047E-02 -2.02370133E-01 -5.98893019E-01
 -3.70642991E-01 -6.27219492E-01 -2.62714969E-01 -1.25435288E-14  2.55785498E-01
  1.13252116E+00  4.57985753E-01 -8.82760296E-01  6.60562698E-01  4.57776954E-15