
Host: Erics-MBP

Timers On : Wed Dec 13 23:10:40 2023
Timers Off: Wed Dec 13 23:10:41 2023

Wall Time:        1.25 seconds

                                                       Time (seconds)
Module                                       User      System        Wall        Calls

--------------------------------------------------------------------------------------

**************************************************************************************

Host: Erics-MBP

Timers On : Wed Dec 13 23:10:59 2023
Timers Off: Wed Dec 13 23:11:01 2023

Wall Time:        1.12 seconds

                                                       Time (seconds)
Module                                       User      System        Wall        Calls

--------------------------------------------------------------------------------------

**************************************************************************************

Host: Erics-MBP

Timers On : Wed Dec 13 23:12:05 2023
Timers Off: Wed Dec 13 23:12:06 2023

Wall Time:        1.19 seconds

                                                       Time (seconds)
Module                                       User      System        Wall        Calls

--------------------------------------------------------------------------------------

**************************************************************************************

Host: Erics-MBP

Timers On : Wed Dec 13 23:12:33 2023
Timers Off: Wed Dec 13 23:12:34 2023

Wall Time:        1.13 seconds

                                                       Time (seconds)
Module                                       User      System        Wall        Calls

--------------------------------------------------------------------------------------

**************************************************************************************

Host: Erics-MBP

Timers On : Wed Dec 13 23:13:02 2023
Timers Off: Wed Dec 13 23:13:03 2023

Wall Time:        1.25 seconds

                                                       Time (seconds)
Module                                       User      System        Wall        Calls

--------------------------------------------------------------------------------------

**************************************************************************************

Host: Erics-MBP

Timers On : Wed Dec 13 23:13:21 2023
Timers Off: Wed Dec 13 23:13:22 2023

Wall Time:        1.24 seconds

                                                       Time (seconds)
Module                                       User      System        Wall        Calls

--------------------------------------------------------------------------------------

**************************************************************************************

Host: Erics-MBP

Timers On : Wed Dec 13 23:15:00 2023
Timers Off: Wed Dec 13 23:15:01 2023

Wall Time:        1.36 seconds

                                                       Time (seconds)
Module                                       User      System        Wall        Calls

--------------------------------------------------------------------------------------

**************************************************************************************

Host: Erics-MBP

Timers On : Wed Dec 13 23:15:19 2023
Timers Off: Wed Dec 13 23:15:21 2023

Wall Time:        1.32 seconds

                                                       Time (seconds)
Module                                       User      System        Wall        Calls

--------------------------------------------------------------------------------------

**************************************************************************************

Host: Erics-MBP

Timers On : Wed Dec 13 23:15:36 2023
Timers Off: Wed Dec 13 23:15:37 2023

Wall Time:        1.41 seconds

                                                       Time (seconds)
Module                                       User      System        Wall        Calls

--------------------------------------------------------------------------------------

**************************************************************************************

Host: Erics-MBP

Timers On : Wed Dec 13 23:16:14 2023
Timers Off: Wed Dec 13 23:16:17 2023

Wall Time:        2.28 seconds

                                                       Time (seconds)
Module                                       User      System        Wall        Calls

--------------------------------------------------------------------------------------

**************************************************************************************

Host: Erics-MBP

Timers On : Wed Dec 13 23:18:32 2023
Timers Off: Wed Dec 13 23:18:33 2023

Wall Time:        1.42 seconds

                                                       Time (seconds)
Module                                       User      System        Wall        Calls

--------------------------------------------------------------------------------------

**************************************************************************************

Host: Erics-MBP

Timers On : Wed Dec 13 23:20:05 2023
Timers Off: Wed Dec 13 23:20:07 2023

Wall Time:        1.42 seconds

                                                       Time (seconds)
Module                                       User      System        Wall        Calls

--------------------------------------------------------------------------------------

**************************************************************************************

Host: Erics-MBP

Timers On : Wed Dec 13 23:21:16 2023
Timers Off: Wed Dec 13 23:21:18 2023

Wall Time:        2.43 seconds

                                                       Time (seconds)
Module                                       User      System        Wall        Calls

--------------------------------------------------------------------------------------

**************************************************************************************

Host: Erics-MBP

Timers On : Wed Dec 13 23:21:48 2023
Timers Off: Wed Dec 13 23:22:23 2023

Wall Time:       35.07 seconds

                                                       Time (seconds)
Module                                       User      System        Wall        Calls

--------------------------------------------------------------------------------------

**************************************************************************************

Host: Erics-MBP

Timers On : Wed Dec 13 23:23:13 2023
Timers Off: Wed Dec 13 23:23:46 2023

Wall Time:       33.07 seconds

                                                       Time (seconds)
Module                                       User      System        Wall        Calls

--------------------------------------------------------------------------------------

**************************************************************************************

Host: Erics-MBP

Timers On : Wed Dec 13 23:26:52 2023
Timers Off: Wed Dec 13 23:27:02 2023

Wall Time:        9.42 seconds

                                                       Time (seconds)
Module                                       User      System        Wall        Calls

--------------------------------------------------------------------------------------

**************************************************************************************

Host: Erics-MBP

Timers On : Wed Dec 13 23:28:21 2023
Timers Off: Wed Dec 13 23:28:31 2023

Wall Time:        9.46 seconds

                                                       Time (seconds)
Module                                       User      System        Wall        Calls

--------------------------------------------------------------------------------------

**************************************************************************************

Host: Erics-MBP

Timers On : Wed Dec 13 23:29:40 2023
Timers Off: Wed Dec 13 23:29:49 2023

Wall Time:        9.22 seconds

                                                       Time (seconds)
Module                                       User      System        Wall        Calls

--------------------------------------------------------------------------------------

**************************************************************************************

Host: Erics-MBP

Timers On : Wed Dec 13 23:31:22 2023
Timers Off: Wed Dec 13 23:31:32 2023

Wall Time:        9.31 seconds

                                                       Time (seconds)
Module                                       User      System        Wall        Calls

--------------------------------------------------------------------------------------

**************************************************************************************

Host: Erics-MBP

Timers On : Wed Dec 13 23:32:01 2023
Timers Off: Wed Dec 13 23:32:11 2023

Wall Time:        9.85 seconds

                                                       Time (seconds)
Module                                       User      System        Wall        Calls

--------------------------------------------------------------------------------------

**************************************************************************************

Host: Erics-MBP

Timers On : Wed Dec 13 23:32:54 2023
Timers Off: Wed Dec 13 23:33:03 2023

Wall Time:        9.49 seconds

                                                       Time (seconds)
Module                                       User      System        Wall        Calls

--------------------------------------------------------------------------------------

**************************************************************************************

Host: Erics-MBP

Timers On : Wed Dec 13 23:33:27 2023
Timers Off: Wed Dec 13 23:33:36 2023

Wall Time:        9.37 seconds

                                                       Time (seconds)
Module                                       User      System        Wall        Calls

--------------------------------------------------------------------------------------

**************************************************************************************

Host: Erics-MBP

Timers On : Wed Dec 13 23:34:38 2023
Timers Off: Wed Dec 13 23:34:47 2023

Wall Time:        9.36 seconds

                                                       Time (seconds)
Module                                       User      System        Wall        Calls

--------------------------------------------------------------------------------------

**************************************************************************************

Host: Erics-MBP

Timers On : Wed Dec 13 23:36:27 2023
Timers Off: Wed Dec 13 23:36:37 2023

Wall Time:        9.47 seconds

                                                       Time (seconds)
Module                                       User      System        Wall        Calls

--------------------------------------------------------------------------------------

**************************************************************************************

Host: Erics-MBP

Timers On : Wed Dec 13 23:37:26 2023
Timers Off: Wed Dec 13 23:37:35 2023

Wall Time:        9.29 seconds

                                                       Time (seconds)
Module                                       User      System        Wall        Calls

--------------------------------------------------------------------------------------

**************************************************************************************

Host: Erics-MBP

Timers On : Wed Dec 13 23:38:16 2023
Timers Off: Wed Dec 13 23:38:25 2023

Wall Time:        9.27 seconds

                                                       Time (seconds)
Module                                       User      System        Wall        Calls

--------------------------------------------------------------------------------------

**************************************************************************************

Host: Erics-MBP

Timers On : Wed Dec 13 23:41:11 2023
Timers Off: Wed Dec 13 23:41:21 2023

Wall Time:        9.69 seconds

                                                       Time (seconds)
Module                                       User      System        Wall        Calls

--------------------------------------------------------------------------------------

**************************************************************************************

Host: Erics-MBP

Timers On : Wed Dec 13 23:42:25 2023
Timers Off: Wed Dec 13 23:42:35 2023

Wall Time:        9.70 seconds

                                                       Time (seconds)
Module                                       User      System        Wall        Calls

--------------------------------------------------------------------------------------

**************************************************************************************

Host: Erics-MBP

Timers On : Wed Dec 13 23:43:03 2023
Timers Off: Wed Dec 13 23:43:13 2023

Wall Time:        9.85 seconds

                                                       Time (seconds)
Module                                       User      System        Wall        Calls

--------------------------------------------------------------------------------------

**************************************************************************************

Host: Erics-MBP

Timers On : Wed Dec 13 23:44:00 2023
Timers Off: Wed Dec 13 23:44:01 2023

Wall Time:        1.23 seconds

                                                       Time (seconds)
Module                                       User      System        Wall        Calls

--------------------------------------------------------------------------------------

**************************************************************************************

Host: Erics-MBP

Timers On : Wed Dec 13 23:44:23 2023
Timers Off: Wed Dec 13 23:44:33 2023

Wall Time:        9.86 seconds

                                                       Time (seconds)
Module                                       User      System        Wall        Calls

--------------------------------------------------------------------------------------

**************************************************************************************

Host: Erics-MBP

Timers On : Wed Dec 13 23:44:55 2023
Timers Off: Wed Dec 13 23:45:05 2023

Wall Time:        9.94 seconds

                                                       Time (seconds)
Module                                       User      System        Wall        Calls

--------------------------------------------------------------------------------------

**************************************************************************************

Host: Erics-MBP

Timers On : Wed Dec 13 23:46:26 2023
Timers Off: Wed Dec 13 23:46:36 2023

Wall Time:        9.93 seconds

                                                       Time (seconds)
Module                                       User      System        Wall        Calls

--------------------------------------------------------------------------------------

**************************************************************************************

Host: Erics-MBP

Timers On : Wed Dec 13 23:52:41 2023
Timers Off: Wed Dec 13 23:52:43 2023

Wall Time:        1.61 seconds

                                                       Time (seconds)
Module                                       User      System        Wall        Calls

--------------------------------------------------------------------------------------

**************************************************************************************

Host: Erics-MBP

Timers On : Wed Dec 13 23:56:08 2023
Timers Off: Wed Dec 13 23:56:18 2023

Wall Time:        9.93 seconds

                                                       Time (seconds)
Module                                       User      System        Wall        Calls

--------------------------------------------------------------------------------------

**************************************************************************************

Host: Erics-MBP

Timers On : Wed Dec 13 23:59:12 2023
Timers Off: Wed Dec 13 23:59:22 2023

Wall Time:       10.17 seconds

                                                       Time (seconds)
Module                                       User      System        Wall        Calls

--------------------------------------------------------------------------------------

**************************************************************************************

Host: Erics-MBP

Timers On : Thu Dec 14 00:36:44 2023
Timers Off: Thu Dec 14 00:36:54 2023

Wall Time:       10.86 seconds

                                                       Time (seconds)
Module                                       User      System        Wall        Calls

--------------------------------------------------------------------------------------

**************************************************************************************

Host: Erics-MBP

Timers On : Thu Dec 14 00:38:00 2023
Timers Off: Thu Dec 14 00:38:14 2023

Wall Time:       13.84 seconds

                                                       Time (seconds)
Module                                       User      System        Wall        Calls

--------------------------------------------------------------------------------------

**************************************************************************************

Host: pc-mm025

Timers On : Thu Dec 14 10:12:34 2023
Timers Off: Thu Dec 14 10:12:47 2023

Wall Time:       13.35 seconds

                                                       Time (seconds)
Module                                       User      System        Wall        Calls

--------------------------------------------------------------------------------------

**************************************************************************************

Host: pc-mm025

Timers On : Thu Dec 14 10:14:29 2023
Timers Off: Thu Dec 14 10:14:42 2023

Wall Time:       13.22 seconds

                                                       Time (seconds)
Module                                       User      System        Wall        Calls

--------------------------------------------------------------------------------------

**************************************************************************************

Host: pc-mm025

Timers On : Thu Dec 14 10:16:08 2023
Timers Off: Thu Dec 14 10:16:22 2023

Wall Time:       13.21 seconds

                                                       Time (seconds)
Module                                       User      System        Wall        Calls

--------------------------------------------------------------------------------------

**************************************************************************************

Host: pc-mm025

Timers On : Thu Dec 14 10:24:14 2023
Timers Off: Thu Dec 14 10:24:16 2023

Wall Time:        2.16 seconds

                                                       Time (seconds)
Module                                       User      System        Wall        Calls

--------------------------------------------------------------------------------------

**************************************************************************************

Host: pc-mm025

Timers On : Thu Dec 14 10:25:44 2023
Timers Off: Thu Dec 14 10:25:46 2023

Wall Time:        2.12 seconds

                                                       Time (seconds)
Module                                       User      System        Wall        Calls

--------------------------------------------------------------------------------------

**************************************************************************************

Host: pc-mm025

Timers On : Thu Dec 14 10:26:13 2023
Timers Off: Thu Dec 14 10:26:15 2023

Wall Time:        2.10 seconds

                                                       Time (seconds)
Module                                       User      System        Wall        Calls

--------------------------------------------------------------------------------------

**************************************************************************************

Host: pc-mm025

Timers On : Thu Dec 14 10:27:13 2023
Timers Off: Thu Dec 14 10:27:15 2023

Wall Time:        2.14 seconds

                                                       Time (seconds)
Module                                       User      System        Wall        Calls

--------------------------------------------------------------------------------------

**************************************************************************************

Host: pc-mm025

Timers On : Thu Dec 14 10:27:36 2023
Timers Off: Thu Dec 14 10:27:49 2023

Wall Time:       12.97 seconds

                                                       Time (seconds)
Module                                       User      System        Wall        Calls

--------------------------------------------------------------------------------------

**************************************************************************************

Host: pc-mm025

Timers On : Thu Dec 14 10:29:05 2023
Timers Off: Thu Dec 14 10:29:17 2023

Wall Time:       12.86 seconds

                                                       Time (seconds)
Module                                       User      System        Wall        Calls

--------------------------------------------------------------------------------------

**************************************************************************************

Host: pc-mm025

Timers On : Thu Dec 14 10:29:44 2023
Timers Off: Thu Dec 14 10:29:57 2023

Wall Time:       13.10 seconds

                                                       Time (seconds)
Module                                       User      System        Wall        Calls

--------------------------------------------------------------------------------------

**************************************************************************************

Host: pc-mm025

Timers On : Thu Dec 14 10:30:37 2023
Timers Off: Thu Dec 14 10:30:50 2023

Wall Time:       13.45 seconds

                                                       Time (seconds)
Module                                       User      System        Wall        Calls

--------------------------------------------------------------------------------------

**************************************************************************************

Host: pc-mm025

Timers On : Thu Dec 14 10:35:53 2023
Timers Off: Thu Dec 14 10:36:06 2023

Wall Time:       13.31 seconds

                                                       Time (seconds)
Module                                       User      System        Wall        Calls

--------------------------------------------------------------------------------------

**************************************************************************************

Host: pc-mm025

Timers On : Thu Dec 14 10:36:38 2023
Timers Off: Thu Dec 14 10:36:51 2023

Wall Time:       13.04 seconds

                                                       Time (seconds)
Module                                       User      System        Wall        Calls

--------------------------------------------------------------------------------------

**************************************************************************************

Host: pc-mm025

Timers On : Thu Dec 14 10:39:56 2023
Timers Off: Thu Dec 14 10:39:57 2023

Wall Time:        0.88 seconds

                                                       Time (seconds)
Module                                       User      System        Wall        Calls

--------------------------------------------------------------------------------------

**************************************************************************************

Host: pc-mm025

Timers On : Thu Dec 14 10:40:04 2023
Timers Off: Thu Dec 14 10:40:18 2023

Wall Time:       13.18 seconds

                                                       Time (seconds)
Module                                       User      System        Wall        Calls

--------------------------------------------------------------------------------------

**************************************************************************************

Host: pc-mm025

Timers On : Thu Dec 14 10:40:59 2023
Timers Off: Thu Dec 14 10:41:13 2023

Wall Time:       13.28 seconds

                                                       Time (seconds)
Module                                       User      System        Wall        Calls

--------------------------------------------------------------------------------------

**************************************************************************************

Host: pc-mm025

Timers On : Thu Dec 14 10:41:43 2023
Timers Off: Thu Dec 14 10:41:56 2023

Wall Time:       13.16 seconds

                                                       Time (seconds)
Module                                       User      System        Wall        Calls

--------------------------------------------------------------------------------------

**************************************************************************************

Host: pc-mm025

Timers On : Thu Dec 14 10:41:58 2023
Timers Off: Thu Dec 14 10:42:12 2023

Wall Time:       13.48 seconds

                                                       Time (seconds)
Module                                       User      System        Wall        Calls

--------------------------------------------------------------------------------------

**************************************************************************************

Host: pc-mm025

Timers On : Thu Dec 14 10:43:07 2023
Timers Off: Thu Dec 14 10:43:08 2023

Wall Time:        0.89 seconds

                                                       Time (seconds)
Module                                       User      System        Wall        Calls

--------------------------------------------------------------------------------------

**************************************************************************************

Host: pc-mm025

Timers On : Thu Dec 14 10:43:26 2023
Timers Off: Thu Dec 14 10:43:39 2023

Wall Time:       13.43 seconds

                                                       Time (seconds)
Module                                       User      System        Wall        Calls

--------------------------------------------------------------------------------------

**************************************************************************************

Host: pc-mm025

Timers On : Thu Dec 14 10:44:05 2023
Timers Off: Thu Dec 14 10:44:18 2023

Wall Time:       13.50 seconds

                                                       Time (seconds)
Module                                       User      System        Wall        Calls

--------------------------------------------------------------------------------------

**************************************************************************************

Host: pc-mm025

Timers On : Thu Dec 14 10:46:14 2023
Timers Off: Thu Dec 14 10:46:15 2023

Wall Time:        0.91 seconds

                                                       Time (seconds)
Module                                       User      System        Wall        Calls

--------------------------------------------------------------------------------------

**************************************************************************************

Host: pc-mm025

Timers On : Thu Dec 14 10:46:24 2023
Timers Off: Thu Dec 14 10:46:37 2023

Wall Time:       13.18 seconds

                                                       Time (seconds)
Module                                       User      System        Wall        Calls

--------------------------------------------------------------------------------------

**************************************************************************************

Host: pc-mm025

Timers On : Thu Dec 14 10:49:20 2023
Timers Off: Thu Dec 14 10:49:20 2023

Wall Time:        0.94 seconds

                                                       Time (seconds)
Module                                       User      System        Wall        Calls

--------------------------------------------------------------------------------------

**************************************************************************************

Host: pc-mm025

Timers On : Thu Dec 14 10:49:33 2023
Timers Off: Thu Dec 14 10:49:34 2023

Wall Time:        0.93 seconds

                                                       Time (seconds)
Module                                       User      System        Wall        Calls

--------------------------------------------------------------------------------------

**************************************************************************************

Host: pc-mm025

Timers On : Thu Dec 14 10:50:25 2023
Timers Off: Thu Dec 14 10:50:26 2023

Wall Time:        0.93 seconds

                                                       Time (seconds)
Module                                       User      System        Wall        Calls

--------------------------------------------------------------------------------------

**************************************************************************************

Host: pc-mm025

Timers On : Thu Dec 14 10:50:48 2023
Timers Off: Thu Dec 14 10:51:01 2023

Wall Time:       13.25 seconds

                                                       Time (seconds)
Module                                       User      System        Wall        Calls

--------------------------------------------------------------------------------------

**************************************************************************************

Host: pc-mm025

Timers On : Thu Dec 14 10:54:55 2023
Timers Off: Thu Dec 14 10:55:09 2023

Wall Time:       13.11 seconds

                                                       Time (seconds)
Module                                       User      System        Wall        Calls

--------------------------------------------------------------------------------------

**************************************************************************************

Host: pc-mm025

Timers On : Thu Dec 14 10:55:25 2023
Timers Off: Thu Dec 14 10:55:38 2023

Wall Time:       13.30 seconds

                                                       Time (seconds)
Module                                       User      System        Wall        Calls

--------------------------------------------------------------------------------------

**************************************************************************************

Host: pc-mm025

Timers On : Thu Dec 14 10:57:29 2023
Timers Off: Thu Dec 14 10:57:43 2023

Wall Time:       13.39 seconds

                                                       Time (seconds)
Module                                       User      System        Wall        Calls

--------------------------------------------------------------------------------------

**************************************************************************************

Host: pc-mm025

Timers On : Thu Dec 14 10:58:36 2023
Timers Off: Thu Dec 14 10:58:50 2023

Wall Time:       13.25 seconds

                                                       Time (seconds)
Module                                       User      System        Wall        Calls

--------------------------------------------------------------------------------------

**************************************************************************************

Host: pc-mm025

Timers On : Thu Dec 14 10:59:10 2023
Timers Off: Thu Dec 14 10:59:24 2023

Wall Time:       13.30 seconds

                                                       Time (seconds)
Module                                       User      System        Wall        Calls

--------------------------------------------------------------------------------------

**************************************************************************************

Host: pc-mm025

Timers On : Thu Dec 14 10:59:44 2023
Timers Off: Thu Dec 14 10:59:57 2023

Wall Time:       13.39 seconds

                                                       Time (seconds)
Module                                       User      System        Wall        Calls

--------------------------------------------------------------------------------------

**************************************************************************************

Host: pc-mm025

Timers On : Thu Dec 14 11:00:22 2023
Timers Off: Thu Dec 14 11:00:36 2023

Wall Time:       13.53 seconds

                                                       Time (seconds)
Module                                       User      System        Wall        Calls

--------------------------------------------------------------------------------------

**************************************************************************************

Host: pc-mm025

Timers On : Thu Dec 14 11:02:45 2023
Timers Off: Thu Dec 14 11:02:58 2023

Wall Time:       13.05 seconds

                                                       Time (seconds)
Module                                       User      System        Wall        Calls

--------------------------------------------------------------------------------------

**************************************************************************************

Host: pc-mm025

Timers On : Thu Dec 14 11:04:59 2023
Timers Off: Thu Dec 14 11:05:12 2023

Wall Time:       13.14 seconds

                                                       Time (seconds)
Module                                       User      System        Wall        Calls

--------------------------------------------------------------------------------------

**************************************************************************************

Host: pc-mm025

Timers On : Thu Dec 14 11:08:38 2023
Timers Off: Thu Dec 14 11:08:51 2023

Wall Time:       13.12 seconds

                                                       Time (seconds)
Module                                       User      System        Wall        Calls

--------------------------------------------------------------------------------------

**************************************************************************************

Host: pc-mm025

Timers On : Thu Dec 14 11:10:52 2023
Timers Off: Thu Dec 14 11:11:06 2023

Wall Time:       13.19 seconds

                                                       Time (seconds)
Module                                       User      System        Wall        Calls

--------------------------------------------------------------------------------------

**************************************************************************************

Host: pc-mm025

Timers On : Thu Dec 14 11:13:48 2023
Timers Off: Thu Dec 14 11:14:02 2023

Wall Time:       13.28 seconds

                                                       Time (seconds)
Module                                       User      System        Wall        Calls

--------------------------------------------------------------------------------------

**************************************************************************************

Host: pc-mm025

Timers On : Thu Dec 14 11:15:51 2023
Timers Off: Thu Dec 14 11:16:04 2023

Wall Time:       13.33 seconds

                                                       Time (seconds)
Module                                       User      System        Wall        Calls

--------------------------------------------------------------------------------------

**************************************************************************************

Host: pc-mm025

Timers On : Thu Dec 14 11:18:24 2023
Timers Off: Thu Dec 14 11:18:38 2023

Wall Time:       13.22 seconds

                                                       Time (seconds)
Module                                       User      System        Wall        Calls

--------------------------------------------------------------------------------------

**************************************************************************************

Host: pc-mm025

Timers On : Thu Dec 14 11:23:04 2023
Timers Off: Thu Dec 14 11:23:05 2023

Wall Time:        0.95 seconds

                                                       Time (seconds)
Module                                       User      System        Wall        Calls

--------------------------------------------------------------------------------------

**************************************************************************************

Host: pc-mm025

Timers On : Thu Dec 14 11:28:41 2023
Timers Off: Thu Dec 14 11:28:42 2023

Wall Time:        0.98 seconds

                                                       Time (seconds)
Module                                       User      System        Wall        Calls

--------------------------------------------------------------------------------------

**************************************************************************************

Host: pc-mm025

Timers On : Thu Dec 14 11:29:16 2023
Timers Off: Thu Dec 14 11:29:30 2023

Wall Time:       13.23 seconds

                                                       Time (seconds)
Module                                       User      System        Wall        Calls

--------------------------------------------------------------------------------------

**************************************************************************************

Host: pc-mm025

Timers On : Thu Dec 14 11:31:47 2023
Timers Off: Thu Dec 14 11:31:48 2023

Wall Time:        0.92 seconds

                                                       Time (seconds)
Module                                       User      System        Wall        Calls

--------------------------------------------------------------------------------------

**************************************************************************************

Host: pc-mm025

Timers On : Thu Dec 14 11:32:09 2023
Timers Off: Thu Dec 14 11:32:10 2023

Wall Time:        0.92 seconds

                                                       Time (seconds)
Module                                       User      System        Wall        Calls

--------------------------------------------------------------------------------------

**************************************************************************************

Host: pc-mm025

Timers On : Thu Dec 14 11:33:00 2023
Timers Off: Thu Dec 14 11:33:01 2023

Wall Time:        0.90 seconds

                                                       Time (seconds)
Module                                       User      System        Wall        Calls

--------------------------------------------------------------------------------------

**************************************************************************************

Host: pc-mm025

Timers On : Thu Dec 14 11:33:12 2023
Timers Off: Thu Dec 14 11:33:13 2023

Wall Time:        0.91 seconds

                                                       Time (seconds)
Module                                       User      System        Wall        Calls

--------------------------------------------------------------------------------------

**************************************************************************************

Host: pc-mm025

Timers On : Thu Dec 14 11:33:27 2023
Timers Off: Thu Dec 14 11:33:28 2023

Wall Time:        0.93 seconds

                                                       Time (seconds)
Module                                       User      System        Wall        Calls

--------------------------------------------------------------------------------------

**************************************************************************************

Host: pc-mm025

Timers On : Thu Dec 14 11:34:55 2023
Timers Off: Thu Dec 14 11:34:56 2023

Wall Time:        1.00 seconds

                                                       Time (seconds)
Module                                       User      System        Wall        Calls

--------------------------------------------------------------------------------------

**************************************************************************************

Host: pc-mm025

Timers On : Thu Dec 14 11:36:05 2023
Timers Off: Thu Dec 14 11:36:06 2023

Wall Time:        1.00 seconds

                                                       Time (seconds)
Module                                       User      System        Wall        Calls

--------------------------------------------------------------------------------------

**************************************************************************************

Host: pc-mm025

Timers On : Thu Dec 14 11:36:36 2023
Timers Off: Thu Dec 14 11:36:37 2023

Wall Time:        1.02 seconds

                                                       Time (seconds)
Module                                       User      System        Wall        Calls

--------------------------------------------------------------------------------------

**************************************************************************************

Host: pc-mm025

Timers On : Thu Dec 14 11:36:59 2023
Timers Off: Thu Dec 14 11:37:12 2023

Wall Time:       13.27 seconds

                                                       Time (seconds)
Module                                       User      System        Wall        Calls

--------------------------------------------------------------------------------------

**************************************************************************************

Host: pc-mm025

Timers On : Thu Dec 14 11:39:55 2023
Timers Off: Thu Dec 14 11:39:57 2023

Wall Time:        2.16 seconds

                                                       Time (seconds)
Module                                       User      System        Wall        Calls

--------------------------------------------------------------------------------------

**************************************************************************************

Host: pc-mm025

Timers On : Thu Dec 14 11:41:13 2023
Timers Off: Thu Dec 14 11:41:16 2023

Wall Time:        2.16 seconds

                                                       Time (seconds)
Module                                       User      System        Wall        Calls

--------------------------------------------------------------------------------------

**************************************************************************************

Host: pc-mm025

Timers On : Thu Dec 14 11:41:36 2023
Timers Off: Thu Dec 14 11:41:48 2023

Wall Time:       12.96 seconds

                                                       Time (seconds)
Module                                       User      System        Wall        Calls

--------------------------------------------------------------------------------------

**************************************************************************************

Host: pc-mm025

Timers On : Thu Dec 14 11:42:49 2023
Timers Off: Thu Dec 14 11:43:03 2023

Wall Time:       13.11 seconds

                                                       Time (seconds)
Module                                       User      System        Wall        Calls

--------------------------------------------------------------------------------------

**************************************************************************************

Host: pc-mm025

Timers On : Thu Dec 14 11:47:57 2023
Timers Off: Thu Dec 14 11:48:11 2023

Wall Time:       13.62 seconds

                                                       Time (seconds)
Module                                       User      System        Wall        Calls

--------------------------------------------------------------------------------------

**************************************************************************************

Host: pc-mm025

Timers On : Thu Dec 14 11:52:03 2023
Timers Off: Thu Dec 14 11:52:17 2023

Wall Time:       13.36 seconds

                                                       Time (seconds)
Module                                       User      System        Wall        Calls

--------------------------------------------------------------------------------------

**************************************************************************************

Host: pc-mm025

Timers On : Thu Dec 14 11:54:46 2023
Timers Off: Thu Dec 14 11:55:00 2023

Wall Time:       13.33 seconds

                                                       Time (seconds)
Module                                       User      System        Wall        Calls

--------------------------------------------------------------------------------------

**************************************************************************************

Host: pc-mm025

Timers On : Thu Dec 14 11:55:21 2023
Timers Off: Thu Dec 14 11:55:23 2023

Wall Time:        2.21 seconds

                                                       Time (seconds)
Module                                       User      System        Wall        Calls

--------------------------------------------------------------------------------------

**************************************************************************************

Host: pc-mm025

Timers On : Thu Dec 14 11:55:39 2023
Timers Off: Thu Dec 14 11:55:53 2023

Wall Time:       13.68 seconds

                                                       Time (seconds)
Module                                       User      System        Wall        Calls

--------------------------------------------------------------------------------------

**************************************************************************************

Host: pc-mm025

Timers On : Thu Dec 14 11:58:10 2023
Timers Off: Thu Dec 14 11:58:24 2023

Wall Time:       14.08 seconds

                                                       Time (seconds)
Module                                       User      System        Wall        Calls

--------------------------------------------------------------------------------------

**************************************************************************************

Host: pc-mm025

Timers On : Thu Dec 14 11:59:20 2023
Timers Off: Thu Dec 14 11:59:34 2023

Wall Time:       13.48 seconds

                                                       Time (seconds)
Module                                       User      System        Wall        Calls

--------------------------------------------------------------------------------------

**************************************************************************************

Host: pc-mm025

Timers On : Thu Dec 14 12:00:48 2023
Timers Off: Thu Dec 14 12:01:02 2023

Wall Time:       13.78 seconds

                                                       Time (seconds)
Module                                       User      System        Wall        Calls

--------------------------------------------------------------------------------------

**************************************************************************************

Host: pc-mm025

Timers On : Thu Dec 14 12:16:57 2023
Timers Off: Thu Dec 14 12:16:57 2023

Wall Time:        0.89 seconds

                                                       Time (seconds)
Module                                       User      System        Wall        Calls

--------------------------------------------------------------------------------------

**************************************************************************************

Host: pc-mm025

Timers On : Thu Dec 14 12:18:00 2023
Timers Off: Thu Dec 14 12:18:14 2023

Wall Time:       13.47 seconds

                                                       Time (seconds)
Module                                       User      System        Wall        Calls

--------------------------------------------------------------------------------------

**************************************************************************************

Host: pc-mm025

Timers On : Thu Dec 14 12:23:36 2023
Timers Off: Thu Dec 14 12:23:50 2023

Wall Time:       13.67 seconds

                                                       Time (seconds)
Module                                       User      System        Wall        Calls

--------------------------------------------------------------------------------------

**************************************************************************************

Host: pc-mm025

Timers On : Thu Dec 14 12:26:30 2023
Timers Off: Thu Dec 14 12:26:44 2023

Wall Time:       13.57 seconds

                                                       Time (seconds)
Module                                       User      System        Wall        Calls

--------------------------------------------------------------------------------------

**************************************************************************************

Host: pc-mm025

Timers On : Thu Dec 14 12:30:56 2023
Timers Off: Thu Dec 14 12:31:10 2023

Wall Time:       13.64 seconds

                                                       Time (seconds)
Module                                       User      System        Wall        Calls

--------------------------------------------------------------------------------------

**************************************************************************************

Host: pc-mm025

Timers On : Thu Dec 14 12:33:46 2023
Timers Off: Thu Dec 14 12:33:59 2023

Wall Time:       13.35 seconds

                                                       Time (seconds)
Module                                       User      System        Wall        Calls

--------------------------------------------------------------------------------------

**************************************************************************************

Host: pc-mm025

Timers On : Thu Dec 14 12:34:32 2023
Timers Off: Thu Dec 14 12:34:45 2023

Wall Time:       13.26 seconds

                                                       Time (seconds)
Module                                       User      System        Wall        Calls

--------------------------------------------------------------------------------------

**************************************************************************************

Host: pc-mm025

Timers On : Thu Dec 14 14:05:24 2023
Timers Off: Thu Dec 14 14:05:26 2023

Wall Time:        2.15 seconds

                                                       Time (seconds)
Module                                       User      System        Wall        Calls

--------------------------------------------------------------------------------------

**************************************************************************************

Host: pc-mm025

Timers On : Thu Dec 14 14:05:58 2023
Timers Off: Thu Dec 14 14:06:00 2023

Wall Time:        2.12 seconds

                                                       Time (seconds)
Module                                       User      System        Wall        Calls

--------------------------------------------------------------------------------------

**************************************************************************************

Host: pc-mm025

Timers On : Thu Dec 14 14:06:33 2023
Timers Off: Thu Dec 14 14:06:34 2023

Wall Time:        0.96 seconds

                                                       Time (seconds)
Module                                       User      System        Wall        Calls

--------------------------------------------------------------------------------------

**************************************************************************************

Host: pc-mm025

Timers On : Thu Dec 14 14:09:02 2023
Timers Off: Thu Dec 14 14:09:03 2023

Wall Time:        0.93 seconds

                                                       Time (seconds)
Module                                       User      System        Wall        Calls

--------------------------------------------------------------------------------------

**************************************************************************************

Host: pc-mm025

Timers On : Thu Dec 14 14:09:23 2023
Timers Off: Thu Dec 14 14:09:24 2023

Wall Time:        0.91 seconds

                                                       Time (seconds)
Module                                       User      System        Wall        Calls

--------------------------------------------------------------------------------------

**************************************************************************************

Host: pc-mm025

Timers On : Thu Dec 14 14:09:35 2023
Timers Off: Thu Dec 14 14:09:36 2023

Wall Time:        0.92 seconds

                                                       Time (seconds)
Module                                       User      System        Wall        Calls

--------------------------------------------------------------------------------------

**************************************************************************************

Host: pc-mm025

Timers On : Thu Dec 14 14:09:54 2023
Timers Off: Thu Dec 14 14:10:07 2023

Wall Time:       13.51 seconds

                                                       Time (seconds)
Module                                       User      System        Wall        Calls

--------------------------------------------------------------------------------------

**************************************************************************************

Host: pc-mm025

Timers On : Thu Dec 14 14:22:39 2023
Timers Off: Thu Dec 14 14:22:41 2023

Wall Time:        2.04 seconds

                                                       Time (seconds)
Module                                       User      System        Wall        Calls

--------------------------------------------------------------------------------------

**************************************************************************************

Host: pc-mm025

Timers On : Thu Dec 14 14:23:04 2023
Timers Off: Thu Dec 14 14:23:18 2023

Wall Time:       13.44 seconds

                                                       Time (seconds)
Module                                       User      System        Wall        Calls

--------------------------------------------------------------------------------------

**************************************************************************************

Host: pc-mm025

Timers On : Thu Dec 14 14:23:33 2023
Timers Off: Thu Dec 14 14:23:47 2023

Wall Time:       13.54 seconds

                                                       Time (seconds)
Module                                       User      System        Wall        Calls

--------------------------------------------------------------------------------------

**************************************************************************************

Host: pc-mm025

Timers On : Thu Dec 14 14:27:22 2023
Timers Off: Thu Dec 14 14:27:23 2023

Wall Time:        1.04 seconds

                                                       Time (seconds)
Module                                       User      System        Wall        Calls

--------------------------------------------------------------------------------------

**************************************************************************************

Host: pc-mm025

Timers On : Thu Dec 14 14:28:04 2023
Timers Off: Thu Dec 14 14:28:05 2023

Wall Time:        1.04 seconds

                                                       Time (seconds)
Module                                       User      System        Wall        Calls

--------------------------------------------------------------------------------------

**************************************************************************************

Host: pc-mm025

Timers On : Thu Dec 14 14:32:09 2023
Timers Off: Thu Dec 14 14:32:10 2023

Wall Time:        0.93 seconds

                                                       Time (seconds)
Module                                       User      System        Wall        Calls

--------------------------------------------------------------------------------------

**************************************************************************************

Host: pc-mm025

Timers On : Thu Dec 14 14:32:52 2023
Timers Off: Thu Dec 14 14:32:53 2023

Wall Time:        0.90 seconds

                                                       Time (seconds)
Module                                       User      System        Wall        Calls

--------------------------------------------------------------------------------------

**************************************************************************************

Host: pc-mm025

Timers On : Thu Dec 14 14:34:26 2023
Timers Off: Thu Dec 14 14:34:27 2023

Wall Time:        0.91 seconds

                                                       Time (seconds)
Module                                       User      System        Wall        Calls

--------------------------------------------------------------------------------------

**************************************************************************************

Host: pc-mm025

Timers On : Thu Dec 14 14:36:19 2023
Timers Off: Thu Dec 14 14:36:20 2023

Wall Time:        0.93 seconds

                                                       Time (seconds)
Module                                       User      System        Wall        Calls

--------------------------------------------------------------------------------------

**************************************************************************************

Host: pc-mm025

Timers On : Thu Dec 14 14:37:46 2023
Timers Off: Thu Dec 14 14:37:47 2023

Wall Time:        0.89 seconds

                                                       Time (seconds)
Module                                       User      System        Wall        Calls

--------------------------------------------------------------------------------------

**************************************************************************************

Host: pc-mm025

Timers On : Thu Dec 14 14:38:00 2023
Timers Off: Thu Dec 14 14:38:01 2023

Wall Time:        0.90 seconds

                                                       Time (seconds)
Module                                       User      System        Wall        Calls

--------------------------------------------------------------------------------------

**************************************************************************************

Host: pc-mm025

Timers On : Thu Dec 14 14:38:24 2023
Timers Off: Thu Dec 14 14:38:25 2023

Wall Time:        0.90 seconds

                                                       Time (seconds)
Module                                       User      System        Wall        Calls

--------------------------------------------------------------------------------------

**************************************************************************************

Host: pc-mm025

Timers On : Thu Dec 14 14:38:44 2023
Timers Off: Thu Dec 14 14:38:45 2023

Wall Time:        1.09 seconds

                                                       Time (seconds)
Module                                       User      System        Wall        Calls

--------------------------------------------------------------------------------------

**************************************************************************************

Host: pc-mm025

Timers On : Thu Dec 14 14:41:40 2023
Timers Off: Thu Dec 14 14:41:41 2023

Wall Time:        1.11 seconds

                                                       Time (seconds)
Module                                       User      System        Wall        Calls

--------------------------------------------------------------------------------------

**************************************************************************************

Host: pc-mm025

Timers On : Thu Dec 14 14:42:51 2023
Timers Off: Thu Dec 14 14:42:52 2023

Wall Time:        1.10 seconds

                                                       Time (seconds)
Module                                       User      System        Wall        Calls

--------------------------------------------------------------------------------------

**************************************************************************************

Host: pc-mm025

Timers On : Thu Dec 14 14:43:46 2023
Timers Off: Thu Dec 14 14:43:47 2023

Wall Time:        1.12 seconds

                                                       Time (seconds)
Module                                       User      System        Wall        Calls

--------------------------------------------------------------------------------------

**************************************************************************************

Host: pc-mm025

Timers On : Thu Dec 14 14:49:24 2023
Timers Off: Thu Dec 14 14:51:20 2023

Wall Time:      115.14 seconds

                                                       Time (seconds)
Module                                       User      System        Wall        Calls

--------------------------------------------------------------------------------------

**************************************************************************************

Host: pc-mm025

Timers On : Thu Dec 14 14:53:55 2023
Timers Off: Thu Dec 14 14:55:55 2023

Wall Time:      120.07 seconds

                                                       Time (seconds)
Module                                       User      System        Wall        Calls

--------------------------------------------------------------------------------------

**************************************************************************************

Host: pc-mm025

Timers On : Thu Dec 14 14:59:57 2023
Timers Off: Thu Dec 14 15:01:53 2023

Wall Time:      116.13 seconds

                                                       Time (seconds)
Module                                       User      System        Wall        Calls

--------------------------------------------------------------------------------------

**************************************************************************************

Host: pc-mm025

Timers On : Thu Dec 14 15:14:46 2023
Timers Off: Thu Dec 14 15:16:45 2023

Wall Time:      118.75 seconds

                                                       Time (seconds)
Module                                       User      System        Wall        Calls

--------------------------------------------------------------------------------------

**************************************************************************************

Host: pc-mm025

Timers On : Thu Dec 14 15:16:56 2023
Timers Off: Thu Dec 14 15:16:57 2023

Wall Time:        1.15 seconds

                                                       Time (seconds)
Module                                       User      System        Wall        Calls

--------------------------------------------------------------------------------------

**************************************************************************************

Host: pc-mm025

Timers On : Thu Dec 14 15:18:43 2023
Timers Off: Thu Dec 14 15:20:41 2023

Wall Time:      117.56 seconds

                                                       Time (seconds)
Module                                       User      System        Wall        Calls

--------------------------------------------------------------------------------------

**************************************************************************************

Host: pc-mm025

Timers On : Thu Dec 14 15:24:05 2023
Timers Off: Thu Dec 14 15:26:08 2023

Wall Time:      123.41 seconds

                                                       Time (seconds)
Module                                       User      System        Wall        Calls

--------------------------------------------------------------------------------------

**************************************************************************************

Host: pc-mm025

Timers On : Thu Dec 14 15:32:27 2023
Timers Off: Thu Dec 14 15:34:28 2023

Wall Time:      120.79 seconds

                                                       Time (seconds)
Module                                       User      System        Wall        Calls

--------------------------------------------------------------------------------------

**************************************************************************************

Host: pc-mm025

Timers On : Thu Dec 14 15:35:03 2023
Timers Off: Thu Dec 14 15:37:01 2023

Wall Time:      117.42 seconds

                                                       Time (seconds)
Module                                       User      System        Wall        Calls

--------------------------------------------------------------------------------------

**************************************************************************************

Host: pc-mm025

Timers On : Thu Dec 14 15:37:22 2023
Timers Off: Thu Dec 14 15:39:26 2023

Wall Time:      123.64 seconds

                                                       Time (seconds)
Module                                       User      System        Wall        Calls

--------------------------------------------------------------------------------------

**************************************************************************************

Host: pc-mm025

Timers On : Thu Dec 14 15:39:51 2023
Timers Off: Thu Dec 14 15:41:55 2023

Wall Time:      124.00 seconds

                                                       Time (seconds)
Module                                       User      System        Wall        Calls

--------------------------------------------------------------------------------------

**************************************************************************************

Host: pc-mm025

Timers On : Thu Dec 14 15:43:38 2023
Timers Off: Thu Dec 14 15:45:55 2023

Wall Time:      136.24 seconds

                                                       Time (seconds)
Module                                       User      System        Wall        Calls

--------------------------------------------------------------------------------------

**************************************************************************************

Host: pc-mm025

Timers On : Thu Dec 14 15:47:56 2023
Timers Off: Thu Dec 14 15:50:02 2023

Wall Time:      126.56 seconds

                                                       Time (seconds)
Module                                       User      System        Wall        Calls

--------------------------------------------------------------------------------------

**************************************************************************************

Host: pc-mm025

Timers On : Thu Dec 14 15:51:44 2023
Timers Off: Thu Dec 14 15:53:42 2023

Wall Time:      118.15 seconds

                                                       Time (seconds)
Module                                       User      System        Wall        Calls

--------------------------------------------------------------------------------------

**************************************************************************************

Host: pc-mm025

Timers On : Thu Dec 14 16:03:52 2023
Timers Off: Thu Dec 14 16:05:50 2023

Wall Time:      118.52 seconds

                                                       Time (seconds)
Module                                       User      System        Wall        Calls

--------------------------------------------------------------------------------------

**************************************************************************************

Host: pc-mm025

Timers On : Thu Dec 14 16:15:21 2023
Timers Off: Thu Dec 14 16:17:18 2023

Wall Time:      116.28 seconds

                                                       Time (seconds)
Module                                       User      System        Wall        Calls

--------------------------------------------------------------------------------------

**************************************************************************************

Host: pc-mm025

Timers On : Thu Dec 14 16:23:03 2023
Timers Off: Thu Dec 14 16:25:03 2023

Wall Time:      119.84 seconds

                                                       Time (seconds)
Module                                       User      System        Wall        Calls

--------------------------------------------------------------------------------------

**************************************************************************************

Host: pc-mm025

Timers On : Thu Dec 14 17:21:29 2023
Timers Off: Thu Dec 14 17:23:31 2023

Wall Time:      122.47 seconds

                                                       Time (seconds)
Module                                       User      System        Wall        Calls

--------------------------------------------------------------------------------------

**************************************************************************************

Host: pc-mm025

Timers On : Thu Dec 14 17:27:50 2023
Timers Off: Thu Dec 14 17:29:53 2023

Wall Time:      122.83 seconds

                                                       Time (seconds)
Module                                       User      System        Wall        Calls

--------------------------------------------------------------------------------------

**************************************************************************************

Host: pc-mm025

Timers On : Thu Dec 14 17:30:22 2023
Timers Off: Thu Dec 14 17:32:20 2023

Wall Time:      117.89 seconds

                                                       Time (seconds)
Module                                       User      System        Wall        Calls

--------------------------------------------------------------------------------------

**************************************************************************************

Host: pc-mm025

Timers On : Thu Dec 14 17:33:33 2023
Timers Off: Thu Dec 14 17:35:26 2023

Wall Time:      113.59 seconds

                                                       Time (seconds)
Module                                       User      System        Wall        Calls

--------------------------------------------------------------------------------------

**************************************************************************************

Host: pc-mm025

Timers On : Thu Dec 14 17:42:36 2023
Timers Off: Thu Dec 14 17:44:34 2023

Wall Time:      118.77 seconds

                                                       Time (seconds)
Module                                       User      System        Wall        Calls

--------------------------------------------------------------------------------------

**************************************************************************************

Host: pc-mm025

Timers On : Thu Dec 14 17:45:01 2023
Timers Off: Thu Dec 14 17:46:59 2023

Wall Time:      118.52 seconds

                                                       Time (seconds)
Module                                       User      System        Wall        Calls

--------------------------------------------------------------------------------------

**************************************************************************************

Host: pc-mm025

Timers On : Thu Dec 14 17:52:14 2023
Timers Off: Thu Dec 14 17:54:10 2023

Wall Time:      116.07 seconds

                                                       Time (seconds)
Module                                       User      System        Wall        Calls

--------------------------------------------------------------------------------------

**************************************************************************************

Host: pc-mm025

Timers On : Thu Dec 14 17:56:16 2023
Timers Off: Thu Dec 14 17:56:30 2023

Wall Time:       14.70 seconds

                                                       Time (seconds)
Module                                       User      System        Wall        Calls

--------------------------------------------------------------------------------------

**************************************************************************************

Host: pc-mm025

Timers On : Thu Dec 14 17:56:39 2023
Timers Off: Thu Dec 14 17:58:25 2023

Wall Time:      106.12 seconds

                                                       Time (seconds)
Module                                       User      System        Wall        Calls

--------------------------------------------------------------------------------------

**************************************************************************************

Host: pc-mm025

Timers On : Mon Dec 18 10:26:41 2023
Timers Off: Mon Dec 18 10:26:41 2023

Wall Time:        0.38 seconds

                                                       Time (seconds)
Module                                       User      System        Wall        Calls

--------------------------------------------------------------------------------------

**************************************************************************************

Host: pc-mm025

Timers On : Mon Dec 18 10:27:14 2023
Timers Off: Mon Dec 18 10:27:15 2023

Wall Time:        0.78 seconds

                                                       Time (seconds)
Module                                       User      System        Wall        Calls

--------------------------------------------------------------------------------------

**************************************************************************************

Host: pc-mm025

Timers On : Mon Dec 18 10:27:37 2023
Timers Off: Mon Dec 18 10:27:38 2023

Wall Time:        0.58 seconds

                                                       Time (seconds)
Module                                       User      System        Wall        Calls

--------------------------------------------------------------------------------------

**************************************************************************************

Host: pc-mm025

Timers On : Mon Dec 18 10:27:48 2023
Timers Off: Mon Dec 18 10:27:48 2023

Wall Time:        0.58 seconds

                                                       Time (seconds)
Module                                       User      System        Wall        Calls

--------------------------------------------------------------------------------------

**************************************************************************************

Host: pc-mm025

Timers On : Mon Dec 18 10:27:55 2023
Timers Off: Mon Dec 18 10:27:56 2023

Wall Time:        0.59 seconds

                                                       Time (seconds)
Module                                       User      System        Wall        Calls

--------------------------------------------------------------------------------------

**************************************************************************************

Host: pc-mm025

Timers On : Mon Dec 18 10:28:18 2023
Timers Off: Mon Dec 18 10:28:19 2023

Wall Time:        0.57 seconds

                                                       Time (seconds)
Module                                       User      System        Wall        Calls

--------------------------------------------------------------------------------------

**************************************************************************************

Host: pc-mm025

Timers On : Mon Dec 18 10:28:51 2023
Timers Off: Mon Dec 18 10:28:51 2023

Wall Time:        0.58 seconds

                                                       Time (seconds)
Module                                       User      System        Wall        Calls

--------------------------------------------------------------------------------------

**************************************************************************************

Host: pc-mm025

Timers On : Mon Dec 18 10:29:16 2023
Timers Off: Mon Dec 18 10:29:17 2023

Wall Time:        0.59 seconds

                                                       Time (seconds)
Module                                       User      System        Wall        Calls

--------------------------------------------------------------------------------------

**************************************************************************************

Host: pc-mm025

Timers On : Mon Dec 18 10:29:46 2023
Timers Off: Mon Dec 18 10:29:47 2023

Wall Time:        0.59 seconds

                                                       Time (seconds)
Module                                       User      System        Wall        Calls

--------------------------------------------------------------------------------------

**************************************************************************************

Host: pc-mm025

Timers On : Mon Dec 18 10:30:17 2023
Timers Off: Mon Dec 18 10:30:18 2023

Wall Time:        0.59 seconds

                                                       Time (seconds)
Module                                       User      System        Wall        Calls

--------------------------------------------------------------------------------------

**************************************************************************************

Host: pc-mm025

Timers On : Mon Dec 18 10:30:29 2023
Timers Off: Mon Dec 18 10:30:30 2023

Wall Time:        0.60 seconds

                                                       Time (seconds)
Module                                       User      System        Wall        Calls

--------------------------------------------------------------------------------------

**************************************************************************************

Host: pc-mm025

Timers On : Mon Dec 18 10:31:09 2023
Timers Off: Mon Dec 18 10:31:09 2023

Wall Time:        0.58 seconds

                                                       Time (seconds)
Module                                       User      System        Wall        Calls

--------------------------------------------------------------------------------------

**************************************************************************************

Host: pc-mm025

Timers On : Mon Dec 18 10:41:18 2023
Timers Off: Mon Dec 18 10:41:19 2023

Wall Time:        0.31 seconds

                                                       Time (seconds)
Module                                       User      System        Wall        Calls

--------------------------------------------------------------------------------------

**************************************************************************************

Host: pc-mm025

Timers On : Mon Dec 18 10:43:56 2023
Timers Off: Mon Dec 18 10:43:57 2023

Wall Time:        0.49 seconds

                                                       Time (seconds)
Module                                       User      System        Wall        Calls

--------------------------------------------------------------------------------------

**************************************************************************************

Host: pc-mm025

Timers On : Mon Dec 18 10:45:00 2023
Timers Off: Mon Dec 18 10:45:00 2023

Wall Time:        0.29 seconds

                                                       Time (seconds)
Module                                       User      System        Wall        Calls

--------------------------------------------------------------------------------------

**************************************************************************************

Host: pc-mm025

Timers On : Mon Dec 18 10:45:12 2023
Timers Off: Mon Dec 18 10:45:12 2023

Wall Time:        0.42 seconds

                                                       Time (seconds)
Module                                       User      System        Wall        Calls

--------------------------------------------------------------------------------------

[...]

                                                       Time (seconds)
Module                                       User      System        Wall        Calls

--------------------------------------------------------------------------------------

**************************************************************************************

Host: pc-mm025

Timers On : Wed Dec 20 15:16:11 2023
Timers Off: Wed Dec 20 15:16:15 2023

Wall Time:        4.49 seconds

                                                       Time (seconds)
Module                                       User      System        Wall        Calls

--------------------------------------------------------------------------------------

**************************************************************************************

Host: pc-mm025

Timers On : Wed Dec 20 15:17:33 2023
Timers Off: Wed Dec 20 15:17:38 2023

Wall Time:        4.45 seconds

                                                       Time (seconds)
Module                                       User      System        Wall        Calls

--------------------------------------------------------------------------------------

**************************************************************************************

Host: pc-mm025

Timers On : Wed Dec 20 15:17:53 2023
Timers Off: Wed Dec 20 15:17:58 2023

Wall Time:        4.62 seconds

                                                       Time (seconds)
Module                                       User      System        Wall        Calls

--------------------------------------------------------------------------------------

**************************************************************************************

Host: pc-mm025

Timers On : Wed Dec 20 15:44:21 2023
Timers Off: Wed Dec 20 15:45:00 2023

Wall Time:       38.83 seconds

                                                       Time (seconds)
Module                                       User      System        Wall        Calls

--------------------------------------------------------------------------------------

**************************************************************************************

Host: pc-mm025

Timers On : Wed Dec 20 15:46:15 2023
Timers Off: Wed Dec 20 15:46:29 2023

Wall Time:       13.86 seconds

                                                       Time (seconds)
Module                                       User      System        Wall        Calls

--------------------------------------------------------------------------------------

**************************************************************************************

Host: pc-mm025

Timers On : Wed Dec 20 15:50:42 2023
Timers Off: Wed Dec 20 15:50:44 2023

Wall Time:        1.93 seconds

                                                       Time (seconds)
Module                                       User      System        Wall        Calls

--------------------------------------------------------------------------------------

**************************************************************************************

Host: pc-mm025

Timers On : Wed Dec 20 15:51:10 2023
Timers Off: Wed Dec 20 15:51:13 2023

Wall Time:        3.27 seconds

                                                       Time (seconds)
Module                                       User      System        Wall        Calls

--------------------------------------------------------------------------------------

**************************************************************************************

Host: pc-mm025

Timers On : Wed Dec 20 15:52:29 2023
Timers Off: Wed Dec 20 15:52:32 2023

Wall Time:        3.20 seconds

                                                       Time (seconds)
Module                                       User      System        Wall        Calls

--------------------------------------------------------------------------------------

**************************************************************************************

Host: pc-mm025

Timers On : Wed Dec 20 15:53:01 2023
Timers Off: Wed Dec 20 15:53:04 2023

Wall Time:        3.21 seconds

                                                       Time (seconds)
Module                                       User      System        Wall        Calls

--------------------------------------------------------------------------------------

**************************************************************************************

Host: pc-mm025

Timers On : Wed Dec 20 15:53:49 2023
Timers Off: Wed Dec 20 15:53:53 2023

Wall Time:        3.26 seconds

                                                       Time (seconds)
Module                                       User      System        Wall        Calls

--------------------------------------------------------------------------------------

**************************************************************************************

Host: pc-mm025

Timers On : Wed Dec 20 15:56:34 2023
Timers Off: Wed Dec 20 15:56:37 2023

Wall Time:        3.18 seconds

                                                       Time (seconds)
Module                                       User      System        Wall        Calls

--------------------------------------------------------------------------------------

**************************************************************************************

Host: pc-mm025

Timers On : Wed Dec 20 15:58:51 2023
Timers Off: Wed Dec 20 15:58:54 2023

Wall Time:        2.55 seconds

                                                       Time (seconds)
Module                                       User      System        Wall        Calls

--------------------------------------------------------------------------------------

**************************************************************************************

Host: pc-mm025

Timers On : Wed Dec 20 15:59:59 2023
Timers Off: Wed Dec 20 16:00:02 2023

Wall Time:        2.56 seconds

                                                       Time (seconds)
Module                                       User      System        Wall        Calls

--------------------------------------------------------------------------------------

**************************************************************************************

Host: pc-mm025

Timers On : Wed Dec 20 16:00:49 2023
Timers Off: Wed Dec 20 16:00:52 2023

Wall Time:        2.59 seconds

                                                       Time (seconds)
Module                                       User      System        Wall        Calls

--------------------------------------------------------------------------------------

**************************************************************************************

Host: pc-mm025

Timers On : Wed Dec 20 16:02:01 2023
Timers Off: Wed Dec 20 16:02:04 2023

Wall Time:        2.89 seconds

                                                       Time (seconds)
Module                                       User      System        Wall        Calls

--------------------------------------------------------------------------------------

**************************************************************************************

Host: pc-mm025

Timers On : Wed Dec 20 16:03:04 2023
Timers Off: Wed Dec 20 16:03:07 2023

Wall Time:        2.88 seconds

                                                       Time (seconds)
Module                                       User      System        Wall        Calls

--------------------------------------------------------------------------------------

**************************************************************************************

Host: pc-mm025

Timers On : Wed Dec 20 16:03:50 2023
Timers Off: Wed Dec 20 16:04:03 2023

Wall Time:       13.13 seconds

                                                       Time (seconds)
Module                                       User      System        Wall        Calls

--------------------------------------------------------------------------------------

**************************************************************************************

Host: pc-mm025

Timers On : Wed Dec 20 16:04:43 2023
Timers Off: Wed Dec 20 16:04:56 2023

Wall Time:       13.30 seconds

                                                       Time (seconds)
Module                                       User      System        Wall        Calls

--------------------------------------------------------------------------------------

**************************************************************************************

Host: pc-mm025

Timers On : Wed Dec 20 16:05:37 2023
Timers Off: Wed Dec 20 16:05:50 2023

Wall Time:       13.07 seconds

                                                       Time (seconds)
Module                                       User      System        Wall        Calls

--------------------------------------------------------------------------------------

**************************************************************************************

Host: pc-mm025

Timers On : Wed Dec 20 16:09:04 2023
Timers Off: Wed Dec 20 16:09:17 2023

Wall Time:       13.18 seconds

                                                       Time (seconds)
Module                                       User      System        Wall        Calls

--------------------------------------------------------------------------------------

**************************************************************************************

Host: pc-mm025

Timers On : Wed Dec 20 16:09:41 2023
Timers Off: Wed Dec 20 16:09:47 2023

Wall Time:        5.81 seconds

                                                       Time (seconds)
Module                                       User      System        Wall        Calls

--------------------------------------------------------------------------------------

**************************************************************************************

Host: pc-mm025

Timers On : Wed Dec 20 16:10:32 2023
Timers Off: Wed Dec 20 16:10:34 2023

Wall Time:        1.32 seconds

                                                       Time (seconds)
Module                                       User      System        Wall        Calls

--------------------------------------------------------------------------------------

**************************************************************************************

Host: pc-mm025

Timers On : Wed Dec 20 16:10:40 2023
Timers Off: Wed Dec 20 16:10:46 2023

Wall Time:        5.90 seconds

                                                       Time (seconds)
Module                                       User      System        Wall        Calls

--------------------------------------------------------------------------------------

**************************************************************************************

Host: pc-mm025

Timers On : Wed Dec 20 16:13:14 2023
Timers Off: Wed Dec 20 16:13:20 2023

Wall Time:        5.77 seconds

                                                       Time (seconds)
Module                                       User      System        Wall        Calls

--------------------------------------------------------------------------------------

**************************************************************************************

Host: pc-mm025

Timers On : Wed Dec 20 16:14:09 2023
Timers Off: Wed Dec 20 16:14:15 2023

Wall Time:        5.76 seconds

                                                       Time (seconds)
Module                                       User      System        Wall        Calls

--------------------------------------------------------------------------------------

**************************************************************************************

Host: pc-mm025

Timers On : Wed Dec 20 16:14:47 2023
Timers Off: Wed Dec 20 16:14:52 2023

Wall Time:        5.66 seconds

                                                       Time (seconds)
Module                                       User      System        Wall        Calls

--------------------------------------------------------------------------------------

**************************************************************************************

Host: pc-mm025

Timers On : Wed Dec 20 16:15:52 2023
Timers Off: Wed Dec 20 16:15:57 2023

Wall Time:        5.72 seconds

                                                       Time (seconds)
Module                                       User      System        Wall        Calls

--------------------------------------------------------------------------------------

**************************************************************************************

Host: pc-mm025

Timers On : Wed Dec 20 16:17:06 2023
Timers Off: Wed Dec 20 16:17:11 2023

Wall Time:        5.73 seconds

                                                       Time (seconds)
Module                                       User      System        Wall        Calls

--------------------------------------------------------------------------------------

**************************************************************************************

Host: pc-mm025

Timers On : Wed Dec 20 16:17:38 2023
Timers Off: Wed Dec 20 16:17:44 2023

Wall Time:        5.75 seconds

                                                       Time (seconds)
Module                                       User      System        Wall        Calls

--------------------------------------------------------------------------------------

**************************************************************************************

Host: pc-mm025

Timers On : Wed Dec 20 16:18:08 2023
Timers Off: Wed Dec 20 16:18:13 2023

Wall Time:        5.55 seconds

                                                       Time (seconds)
Module                                       User      System        Wall        Calls

--------------------------------------------------------------------------------------

**************************************************************************************

Host: pc-mm025

Timers On : Wed Dec 20 16:19:01 2023
Timers Off: Wed Dec 20 16:19:07 2023

Wall Time:        5.76 seconds

                                                       Time (seconds)
Module                                       User      System        Wall        Calls

--------------------------------------------------------------------------------------

**************************************************************************************

Host: pc-mm025

Timers On : Wed Dec 20 16:19:56 2023
Timers Off: Wed Dec 20 16:20:01 2023

Wall Time:        5.94 seconds

                                                       Time (seconds)
Module                                       User      System        Wall        Calls

--------------------------------------------------------------------------------------

**************************************************************************************

Host: pc-mm025

Timers On : Wed Dec 20 16:21:40 2023
Timers Off: Wed Dec 20 16:21:45 2023

Wall Time:        4.38 seconds

                                                       Time (seconds)
Module                                       User      System        Wall        Calls

--------------------------------------------------------------------------------------

**************************************************************************************

Host: pc-mm025

Timers On : Wed Dec 20 16:24:46 2023
Timers Off: Wed Dec 20 16:24:50 2023

Wall Time:        4.34 seconds

                                                       Time (seconds)
Module                                       User      System        Wall        Calls

--------------------------------------------------------------------------------------

**************************************************************************************

Host: pc-mm025

Timers On : Wed Dec 20 16:25:14 2023
Timers Off: Wed Dec 20 16:25:19 2023

Wall Time:        4.19 seconds

                                                       Time (seconds)
Module                                       User      System        Wall        Calls

--------------------------------------------------------------------------------------

**************************************************************************************

Host: pc-mm025

Timers On : Wed Dec 20 16:26:14 2023
Timers Off: Wed Dec 20 16:26:18 2023

Wall Time:        4.11 seconds

                                                       Time (seconds)
Module                                       User      System        Wall        Calls

--------------------------------------------------------------------------------------

**************************************************************************************

Host: pc-mm025

Timers On : Wed Dec 20 16:27:39 2023
Timers Off: Wed Dec 20 16:27:43 2023

Wall Time:        4.06 seconds

                                                       Time (seconds)
Module                                       User      System        Wall        Calls

--------------------------------------------------------------------------------------

**************************************************************************************

Host: pc-mm025

Timers On : Wed Dec 20 16:30:46 2023
Timers Off: Wed Dec 20 16:30:51 2023

Wall Time:        4.90 seconds

                                                       Time (seconds)
Module                                       User      System        Wall        Calls

--------------------------------------------------------------------------------------

**************************************************************************************

Host: pc-mm025

Timers On : Wed Dec 20 16:32:48 2023
Timers Off: Wed Dec 20 16:32:53 2023

Wall Time:        4.74 seconds

                                                       Time (seconds)
Module                                       User      System        Wall        Calls

--------------------------------------------------------------------------------------

**************************************************************************************

Host: pc-mm025

Timers On : Wed Dec 20 16:35:43 2023
Timers Off: Wed Dec 20 16:35:48 2023

Wall Time:        4.85 seconds

                                                       Time (seconds)
Module                                       User      System        Wall        Calls

--------------------------------------------------------------------------------------

**************************************************************************************

Host: pc-mm025

Timers On : Wed Dec 20 16:37:01 2023
Timers Off: Wed Dec 20 16:37:06 2023

Wall Time:        5.39 seconds

                                                       Time (seconds)
Module                                       User      System        Wall        Calls

--------------------------------------------------------------------------------------

**************************************************************************************

Host: pc-mm025

Timers On : Wed Dec 20 16:38:07 2023
Timers Off: Wed Dec 20 16:38:13 2023

Wall Time:        6.44 seconds

                                                       Time (seconds)
Module                                       User      System        Wall        Calls

--------------------------------------------------------------------------------------

**************************************************************************************

Host: pc-mm025

Timers On : Wed Dec 20 16:38:38 2023
Timers Off: Wed Dec 20 16:38:45 2023

Wall Time:        6.52 seconds

                                                       Time (seconds)
Module                                       User      System        Wall        Calls

--------------------------------------------------------------------------------------

**************************************************************************************
