
Host: Erics-MBP

Timers On : Wed Dec 13 23:10:40 2023
Timers Off: Wed Dec 13 23:10:41 2023

Wall Time:        1.25 seconds

                                                       Time (seconds)
Module                                       User      System        Wall        Calls

--------------------------------------------------------------------------------------

**************************************************************************************

Host: Erics-MBP

Timers On : Wed Dec 13 23:10:59 2023
Timers Off: Wed Dec 13 23:11:01 2023

Wall Time:        1.12 seconds

                                                       Time (seconds)
Module                                       User      System        Wall        Calls

--------------------------------------------------------------------------------------

**************************************************************************************

Host: Erics-MBP

Timers On : Wed Dec 13 23:12:05 2023
Timers Off: Wed Dec 13 23:12:06 2023

Wall Time:        1.19 seconds

                                                       Time (seconds)
Module                                       User      System        Wall        Calls

--------------------------------------------------------------------------------------

**************************************************************************************

Host: Erics-MBP

Timers On : Wed Dec 13 23:12:33 2023
Timers Off: Wed Dec 13 23:12:34 2023

Wall Time:        1.13 seconds

                                                       Time (seconds)
Module                                       User      System        Wall        Calls

--------------------------------------------------------------------------------------

**************************************************************************************

Host: Erics-MBP

Timers On : Wed Dec 13 23:13:02 2023
Timers Off: Wed Dec 13 23:13:03 2023

Wall Time:        1.25 seconds

                                                       Time (seconds)
Module                                       User      System        Wall        Calls

--------------------------------------------------------------------------------------

**************************************************************************************

Host: Erics-MBP

Timers On : Wed Dec 13 23:13:21 2023
Timers Off: Wed Dec 13 23:13:22 2023

Wall Time:        1.24 seconds

                                                       Time (seconds)
Module                                       User      System        Wall        Calls

--------------------------------------------------------------------------------------

**************************************************************************************

Host: Erics-MBP

Timers On : Wed Dec 13 23:15:00 2023
Timers Off: Wed Dec 13 23:15:01 2023

Wall Time:        1.36 seconds

                                                       Time (seconds)
Module                                       User      System        Wall        Calls

--------------------------------------------------------------------------------------

**************************************************************************************

Host: Erics-MBP

Timers On : Wed Dec 13 23:15:19 2023
Timers Off: Wed Dec 13 23:15:21 2023

Wall Time:        1.32 seconds

                                                       Time (seconds)
Module                                       User      System        Wall        Calls

--------------------------------------------------------------------------------------

**************************************************************************************

Host: Erics-MBP

Timers On : Wed Dec 13 23:15:36 2023
Timers Off: Wed Dec 13 23:15:37 2023

Wall Time:        1.41 seconds

                                                       Time (seconds)
Module                                       User      System        Wall        Calls

--------------------------------------------------------------------------------------

**************************************************************************************

Host: Erics-MBP

Timers On : Wed Dec 13 23:16:14 2023
Timers Off: Wed Dec 13 23:16:17 2023

Wall Time:        2.28 seconds

                                                       Time (seconds)
Module                                       User      System        Wall        Calls

--------------------------------------------------------------------------------------

**************************************************************************************

Host: Erics-MBP

Timers On : Wed Dec 13 23:18:32 2023
Timers Off: Wed Dec 13 23:18:33 2023

Wall Time:        1.42 seconds

                                                       Time (seconds)
Module                                       User      System        Wall        Calls

--------------------------------------------------------------------------------------

**************************************************************************************

Host: Erics-MBP

Timers On : Wed Dec 13 23:20:05 2023
Timers Off: Wed Dec 13 23:20:07 2023

Wall Time:        1.42 seconds

                                                       Time (seconds)
Module                                       User      System        Wall        Calls

--------------------------------------------------------------------------------------

**************************************************************************************

Host: Erics-MBP

Timers On : Wed Dec 13 23:21:16 2023
Timers Off: Wed Dec 13 23:21:18 2023

Wall Time:        2.43 seconds

                                                       Time (seconds)
Module                                       User      System        Wall        Calls

--------------------------------------------------------------------------------------

**************************************************************************************

Host: Erics-MBP

Timers On : Wed Dec 13 23:21:48 2023
Timers Off: Wed Dec 13 23:22:23 2023

Wall Time:       35.07 seconds

                                                       Time (seconds)
Module                                       User      System        Wall        Calls

--------------------------------------------------------------------------------------

**************************************************************************************

Host: Erics-MBP

Timers On : Wed Dec 13 23:23:13 2023
Timers Off: Wed Dec 13 23:23:46 2023

Wall Time:       33.07 seconds

                                                       Time (seconds)
Module                                       User      System        Wall        Calls

--------------------------------------------------------------------------------------

**************************************************************************************

Host: Erics-MBP

Timers On : Wed Dec 13 23:26:52 2023
Timers Off: Wed Dec 13 23:27:02 2023

Wall Time:        9.42 seconds

                                                       Time (seconds)
Module                                       User      System        Wall        Calls

--------------------------------------------------------------------------------------

**************************************************************************************

Host: Erics-MBP

Timers On : Wed Dec 13 23:28:21 2023
Timers Off: Wed Dec 13 23:28:31 2023

Wall Time:        9.46 seconds

                                                       Time (seconds)
Module                                       User      System        Wall        Calls

--------------------------------------------------------------------------------------

**************************************************************************************

Host: Erics-MBP

Timers On : Wed Dec 13 23:29:40 2023
Timers Off: Wed Dec 13 23:29:49 2023

Wall Time:        9.22 seconds

                                                       Time (seconds)
Module                                       User      System        Wall        Calls

--------------------------------------------------------------------------------------

**************************************************************************************

Host: Erics-MBP

Timers On : Wed Dec 13 23:31:22 2023
Timers Off: Wed Dec 13 23:31:32 2023

Wall Time:        9.31 seconds

                                                       Time (seconds)
Module                                       User      System        Wall        Calls

--------------------------------------------------------------------------------------

**************************************************************************************

Host: Erics-MBP

Timers On : Wed Dec 13 23:32:01 2023
Timers Off: Wed Dec 13 23:32:11 2023

Wall Time:        9.85 seconds

                                                       Time (seconds)
Module                                       User      System        Wall        Calls

--------------------------------------------------------------------------------------

**************************************************************************************

Host: Erics-MBP

Timers On : Wed Dec 13 23:32:54 2023
Timers Off: Wed Dec 13 23:33:03 2023

Wall Time:        9.49 seconds

                                                       Time (seconds)
Module                                       User      System        Wall        Calls

--------------------------------------------------------------------------------------

**************************************************************************************

Host: Erics-MBP

Timers On : Wed Dec 13 23:33:27 2023
Timers Off: Wed Dec 13 23:33:36 2023

Wall Time:        9.37 seconds

                                                       Time (seconds)
Module                                       User      System        Wall        Calls

--------------------------------------------------------------------------------------

**************************************************************************************

Host: Erics-MBP

Timers On : Wed Dec 13 23:34:38 2023
Timers Off: Wed Dec 13 23:34:47 2023

Wall Time:        9.36 seconds

                                                       Time (seconds)
Module                                       User      System        Wall        Calls

--------------------------------------------------------------------------------------

**************************************************************************************

Host: Erics-MBP

Timers On : Wed Dec 13 23:36:27 2023
Timers Off: Wed Dec 13 23:36:37 2023

Wall Time:        9.47 seconds

                                                       Time (seconds)
Module                                       User      System        Wall        Calls

--------------------------------------------------------------------------------------

**************************************************************************************

Host: Erics-MBP

Timers On : Wed Dec 13 23:37:26 2023
Timers Off: Wed Dec 13 23:37:35 2023

Wall Time:        9.29 seconds

                                                       Time (seconds)
Module                                       User      System        Wall        Calls

--------------------------------------------------------------------------------------

**************************************************************************************

Host: Erics-MBP

Timers On : Wed Dec 13 23:38:16 2023
Timers Off: Wed Dec 13 23:38:25 2023

Wall Time:        9.27 seconds

                                                       Time (seconds)
Module                                       User      System        Wall        Calls

--------------------------------------------------------------------------------------

**************************************************************************************

Host: Erics-MBP

Timers On : Wed Dec 13 23:41:11 2023
Timers Off: Wed Dec 13 23:41:21 2023

Wall Time:        9.69 seconds

                                                       Time (seconds)
Module                                       User      System        Wall        Calls

--------------------------------------------------------------------------------------

**************************************************************************************

Host: Erics-MBP

Timers On : Wed Dec 13 23:42:25 2023
Timers Off: Wed Dec 13 23:42:35 2023

Wall Time:        9.70 seconds

                                                       Time (seconds)
Module                                       User      System        Wall        Calls

--------------------------------------------------------------------------------------

**************************************************************************************

Host: Erics-MBP

Timers On : Wed Dec 13 23:43:03 2023
Timers Off: Wed Dec 13 23:43:13 2023

Wall Time:        9.85 seconds

                                                       Time (seconds)
Module                                       User      System        Wall        Calls

--------------------------------------------------------------------------------------

**************************************************************************************

Host: Erics-MBP

Timers On : Wed Dec 13 23:44:00 2023
Timers Off: Wed Dec 13 23:44:01 2023

Wall Time:        1.23 seconds

                                                       Time (seconds)
Module                                       User      System        Wall        Calls

--------------------------------------------------------------------------------------

**************************************************************************************

Host: Erics-MBP

Timers On : Wed Dec 13 23:44:23 2023
Timers Off: Wed Dec 13 23:44:33 2023

Wall Time:        9.86 seconds

                                                       Time (seconds)
Module                                       User      System        Wall        Calls

--------------------------------------------------------------------------------------

**************************************************************************************

Host: Erics-MBP

Timers On : Wed Dec 13 23:44:55 2023
Timers Off: Wed Dec 13 23:45:05 2023

Wall Time:        9.94 seconds

                                                       Time (seconds)
Module                                       User      System        Wall        Calls

--------------------------------------------------------------------------------------

**************************************************************************************

Host: Erics-MBP

Timers On : Wed Dec 13 23:46:26 2023
Timers Off: Wed Dec 13 23:46:36 2023

Wall Time:        9.93 seconds

                                                       Time (seconds)
Module                                       User      System        Wall        Calls

--------------------------------------------------------------------------------------

**************************************************************************************

Host: Erics-MBP

Timers On : Wed Dec 13 23:52:41 2023
Timers Off: Wed Dec 13 23:52:43 2023

Wall Time:        1.61 seconds

                                                       Time (seconds)
Module                                       User      System        Wall        Calls

--------------------------------------------------------------------------------------

**************************************************************************************

Host: Erics-MBP

Timers On : Wed Dec 13 23:56:08 2023
Timers Off: Wed Dec 13 23:56:18 2023

Wall Time:        9.93 seconds

                                                       Time (seconds)
Module                                       User      System        Wall        Calls

--------------------------------------------------------------------------------------

**************************************************************************************

Host: Erics-MBP

Timers On : Wed Dec 13 23:59:12 2023
Timers Off: Wed Dec 13 23:59:22 2023

Wall Time:       10.17 seconds

                                                       Time (seconds)
Module                                       User      System        Wall        Calls

--------------------------------------------------------------------------------------

**************************************************************************************

Host: Erics-MBP

Timers On : Thu Dec 14 00:36:44 2023
Timers Off: Thu Dec 14 00:36:54 2023

Wall Time:       10.86 seconds

                                                       Time (seconds)
Module                                       User      System        Wall        Calls

--------------------------------------------------------------------------------------

**************************************************************************************

Host: Erics-MBP

Timers On : Thu Dec 14 00:38:00 2023
Timers Off: Thu Dec 14 00:38:14 2023

Wall Time:       13.84 seconds

                                                       Time (seconds)
Module                                       User      System        Wall        Calls

--------------------------------------------------------------------------------------

**************************************************************************************
