
Host: Erics-MBP

Timers On : Wed Dec 13 23:10:40 2023
Timers Off: Wed Dec 13 23:10:41 2023

Wall Time:        1.25 seconds

                                                       Time (seconds)
Module                                       User      System        Wall        Calls

--------------------------------------------------------------------------------------

**************************************************************************************

Host: Erics-MBP

Timers On : Wed Dec 13 23:10:59 2023
Timers Off: Wed Dec 13 23:11:01 2023

Wall Time:        1.12 seconds

                                                       Time (seconds)
Module                                       User      System        Wall        Calls

--------------------------------------------------------------------------------------

**************************************************************************************

Host: Erics-MBP

Timers On : Wed Dec 13 23:12:05 2023
Timers Off: Wed Dec 13 23:12:06 2023

Wall Time:        1.19 seconds

                                                       Time (seconds)
Module                                       User      System        Wall        Calls

--------------------------------------------------------------------------------------

**************************************************************************************

Host: Erics-MBP

Timers On : Wed Dec 13 23:12:33 2023
Timers Off: Wed Dec 13 23:12:34 2023

Wall Time:        1.13 seconds

                                                       Time (seconds)
Module                                       User      System        Wall        Calls

--------------------------------------------------------------------------------------

**************************************************************************************

Host: Erics-MBP

Timers On : Wed Dec 13 23:13:02 2023
Timers Off: Wed Dec 13 23:13:03 2023

Wall Time:        1.25 seconds

                                                       Time (seconds)
Module                                       User      System        Wall        Calls

--------------------------------------------------------------------------------------

**************************************************************************************

Host: Erics-MBP

Timers On : Wed Dec 13 23:13:21 2023
Timers Off: Wed Dec 13 23:13:22 2023

Wall Time:        1.24 seconds

                                                       Time (seconds)
Module                                       User      System        Wall        Calls

--------------------------------------------------------------------------------------

**************************************************************************************

Host: Erics-MBP

Timers On : Wed Dec 13 23:15:00 2023
Timers Off: Wed Dec 13 23:15:01 2023

Wall Time:        1.36 seconds

                                                       Time (seconds)
Module                                       User      System        Wall        Calls

--------------------------------------------------------------------------------------

**************************************************************************************

Host: Erics-MBP

Timers On : Wed Dec 13 23:15:19 2023
Timers Off: Wed Dec 13 23:15:21 2023

Wall Time:        1.32 seconds

                                                       Time (seconds)
Module                                       User      System        Wall        Calls

--------------------------------------------------------------------------------------

**************************************************************************************

Host: Erics-MBP

Timers On : Wed Dec 13 23:15:36 2023
Timers Off: Wed Dec 13 23:15:37 2023

Wall Time:        1.41 seconds

                                                       Time (seconds)
Module                                       User      System        Wall        Calls

--------------------------------------------------------------------------------------

**************************************************************************************

Host: Erics-MBP

Timers On : Wed Dec 13 23:16:14 2023
Timers Off: Wed Dec 13 23:16:17 2023

Wall Time:        2.28 seconds

                                                       Time (seconds)
Module                                       User      System        Wall        Calls

--------------------------------------------------------------------------------------

**************************************************************************************

Host: Erics-MBP

Timers On : Wed Dec 13 23:18:32 2023
Timers Off: Wed Dec 13 23:18:33 2023

Wall Time:        1.42 seconds

                                                       Time (seconds)
Module                                       User      System        Wall        Calls

--------------------------------------------------------------------------------------

**************************************************************************************

Host: Erics-MBP

Timers On : Wed Dec 13 23:20:05 2023
Timers Off: Wed Dec 13 23:20:07 2023

Wall Time:        1.42 seconds

                                                       Time (seconds)
Module                                       User      System        Wall        Calls

--------------------------------------------------------------------------------------

**************************************************************************************

Host: Erics-MBP

Timers On : Wed Dec 13 23:21:16 2023
Timers Off: Wed Dec 13 23:21:18 2023

Wall Time:        2.43 seconds

                                                       Time (seconds)
Module                                       User      System        Wall        Calls

--------------------------------------------------------------------------------------

**************************************************************************************

Host: Erics-MBP

Timers On : Wed Dec 13 23:21:48 2023
Timers Off: Wed Dec 13 23:22:23 2023

Wall Time:       35.07 seconds

                                                       Time (seconds)
Module                                       User      System        Wall        Calls

--------------------------------------------------------------------------------------

**************************************************************************************

Host: Erics-MBP

Timers On : Wed Dec 13 23:23:13 2023
Timers Off: Wed Dec 13 23:23:46 2023

Wall Time:       33.07 seconds

                                                       Time (seconds)
Module                                       User      System        Wall        Calls

--------------------------------------------------------------------------------------

**************************************************************************************

Host: Erics-MBP

Timers On : Wed Dec 13 23:26:52 2023
Timers Off: Wed Dec 13 23:27:02 2023

Wall Time:        9.42 seconds

                                                       Time (seconds)
Module                                       User      System        Wall        Calls

--------------------------------------------------------------------------------------

**************************************************************************************

Host: Erics-MBP

Timers On : Wed Dec 13 23:28:21 2023
Timers Off: Wed Dec 13 23:28:31 2023

Wall Time:        9.46 seconds

                                                       Time (seconds)
Module                                       User      System        Wall        Calls

--------------------------------------------------------------------------------------

**************************************************************************************

Host: Erics-MBP

Timers On : Wed Dec 13 23:29:40 2023
Timers Off: Wed Dec 13 23:29:49 2023

Wall Time:        9.22 seconds

                                                       Time (seconds)
Module                                       User      System        Wall        Calls

--------------------------------------------------------------------------------------

**************************************************************************************

Host: Erics-MBP

Timers On : Wed Dec 13 23:31:22 2023
Timers Off: Wed Dec 13 23:31:32 2023

Wall Time:        9.31 seconds

                                                       Time (seconds)
Module                                       User      System        Wall        Calls

--------------------------------------------------------------------------------------

**************************************************************************************

Host: Erics-MBP

Timers On : Wed Dec 13 23:32:01 2023
Timers Off: Wed Dec 13 23:32:11 2023

Wall Time:        9.85 seconds

                                                       Time (seconds)
Module                                       User      System        Wall        Calls

--------------------------------------------------------------------------------------

**************************************************************************************

Host: Erics-MBP

Timers On : Wed Dec 13 23:32:54 2023
Timers Off: Wed Dec 13 23:33:03 2023

Wall Time:        9.49 seconds

                                                       Time (seconds)
Module                                       User      System        Wall        Calls

--------------------------------------------------------------------------------------

**************************************************************************************

Host: Erics-MBP

Timers On : Wed Dec 13 23:33:27 2023
Timers Off: Wed Dec 13 23:33:36 2023

Wall Time:        9.37 seconds

                                                       Time (seconds)
Module                                       User      System        Wall        Calls

--------------------------------------------------------------------------------------

**************************************************************************************

Host: Erics-MBP

Timers On : Wed Dec 13 23:34:38 2023
Timers Off: Wed Dec 13 23:34:47 2023

Wall Time:        9.36 seconds

                                                       Time (seconds)
Module                                       User      System        Wall        Calls

--------------------------------------------------------------------------------------

**************************************************************************************

Host: Erics-MBP

Timers On : Wed Dec 13 23:36:27 2023
Timers Off: Wed Dec 13 23:36:37 2023

Wall Time:        9.47 seconds

                                                       Time (seconds)
Module                                       User      System        Wall        Calls

--------------------------------------------------------------------------------------

**************************************************************************************

Host: Erics-MBP

Timers On : Wed Dec 13 23:37:26 2023
Timers Off: Wed Dec 13 23:37:35 2023

Wall Time:        9.29 seconds

                                                       Time (seconds)
Module                                       User      System        Wall        Calls

--------------------------------------------------------------------------------------

**************************************************************************************

Host: Erics-MBP

Timers On : Wed Dec 13 23:38:16 2023
Timers Off: Wed Dec 13 23:38:25 2023

Wall Time:        9.27 seconds

                                                       Time (seconds)
Module                                       User      System        Wall        Calls

--------------------------------------------------------------------------------------

**************************************************************************************

Host: Erics-MBP

Timers On : Wed Dec 13 23:41:11 2023
Timers Off: Wed Dec 13 23:41:21 2023

Wall Time:        9.69 seconds

                                                       Time (seconds)
Module                                       User      System        Wall        Calls

--------------------------------------------------------------------------------------

**************************************************************************************

Host: Erics-MBP

Timers On : Wed Dec 13 23:42:25 2023
Timers Off: Wed Dec 13 23:42:35 2023

Wall Time:        9.70 seconds

                                                       Time (seconds)
Module                                       User      System        Wall        Calls

--------------------------------------------------------------------------------------

**************************************************************************************

Host: Erics-MBP

Timers On : Wed Dec 13 23:43:03 2023
Timers Off: Wed Dec 13 23:43:13 2023

Wall Time:        9.85 seconds

                                                       Time (seconds)
Module                                       User      System        Wall        Calls

--------------------------------------------------------------------------------------

**************************************************************************************

Host: Erics-MBP

Timers On : Wed Dec 13 23:44:00 2023
Timers Off: Wed Dec 13 23:44:01 2023

Wall Time:        1.23 seconds

                                                       Time (seconds)
Module                                       User      System        Wall        Calls

--------------------------------------------------------------------------------------

**************************************************************************************

Host: Erics-MBP

Timers On : Wed Dec 13 23:44:23 2023
Timers Off: Wed Dec 13 23:44:33 2023

Wall Time:        9.86 seconds

                                                       Time (seconds)
Module                                       User      System        Wall        Calls

--------------------------------------------------------------------------------------

**************************************************************************************

Host: Erics-MBP

Timers On : Wed Dec 13 23:44:55 2023
Timers Off: Wed Dec 13 23:45:05 2023

Wall Time:        9.94 seconds

                                                       Time (seconds)
Module                                       User      System        Wall        Calls

--------------------------------------------------------------------------------------

**************************************************************************************

Host: Erics-MBP

Timers On : Wed Dec 13 23:46:26 2023
Timers Off: Wed Dec 13 23:46:36 2023

Wall Time:        9.93 seconds

                                                       Time (seconds)
Module                                       User      System        Wall        Calls

--------------------------------------------------------------------------------------

**************************************************************************************

Host: Erics-MBP

Timers On : Wed Dec 13 23:52:41 2023
Timers Off: Wed Dec 13 23:52:43 2023

Wall Time:        1.61 seconds

                                                       Time (seconds)
Module                                       User      System        Wall        Calls

--------------------------------------------------------------------------------------

**************************************************************************************

Host: Erics-MBP

Timers On : Wed Dec 13 23:56:08 2023
Timers Off: Wed Dec 13 23:56:18 2023

Wall Time:        9.93 seconds

                                                       Time (seconds)
Module                                       User      System        Wall        Calls

--------------------------------------------------------------------------------------

**************************************************************************************

Host: Erics-MBP

Timers On : Wed Dec 13 23:59:12 2023
Timers Off: Wed Dec 13 23:59:22 2023

Wall Time:       10.17 seconds

                                                       Time (seconds)
Module                                       User      System        Wall        Calls

--------------------------------------------------------------------------------------

**************************************************************************************

Host: Erics-MBP

Timers On : Thu Dec 14 00:36:44 2023
Timers Off: Thu Dec 14 00:36:54 2023

Wall Time:       10.86 seconds

                                                       Time (seconds)
Module                                       User      System        Wall        Calls

--------------------------------------------------------------------------------------

**************************************************************************************

Host: Erics-MBP

Timers On : Thu Dec 14 00:38:00 2023
Timers Off: Thu Dec 14 00:38:14 2023

Wall Time:       13.84 seconds

                                                       Time (seconds)
Module                                       User      System        Wall        Calls

--------------------------------------------------------------------------------------

**************************************************************************************

Host: pc-mm025

Timers On : Thu Dec 14 10:12:34 2023
Timers Off: Thu Dec 14 10:12:47 2023

Wall Time:       13.35 seconds

                                                       Time (seconds)
Module                                       User      System        Wall        Calls

--------------------------------------------------------------------------------------

**************************************************************************************

Host: pc-mm025

Timers On : Thu Dec 14 10:14:29 2023
Timers Off: Thu Dec 14 10:14:42 2023

Wall Time:       13.22 seconds

                                                       Time (seconds)
Module                                       User      System        Wall        Calls

--------------------------------------------------------------------------------------

**************************************************************************************

Host: pc-mm025

Timers On : Thu Dec 14 10:16:08 2023
Timers Off: Thu Dec 14 10:16:22 2023

Wall Time:       13.21 seconds

                                                       Time (seconds)
Module                                       User      System        Wall        Calls

--------------------------------------------------------------------------------------

**************************************************************************************

Host: pc-mm025

Timers On : Thu Dec 14 10:24:14 2023
Timers Off: Thu Dec 14 10:24:16 2023

Wall Time:        2.16 seconds

                                                       Time (seconds)
Module                                       User      System        Wall        Calls

--------------------------------------------------------------------------------------

**************************************************************************************

Host: pc-mm025

Timers On : Thu Dec 14 10:25:44 2023
Timers Off: Thu Dec 14 10:25:46 2023

Wall Time:        2.12 seconds

                                                       Time (seconds)
Module                                       User      System        Wall        Calls

--------------------------------------------------------------------------------------

**************************************************************************************

Host: pc-mm025

Timers On : Thu Dec 14 10:26:13 2023
Timers Off: Thu Dec 14 10:26:15 2023

Wall Time:        2.10 seconds

                                                       Time (seconds)
Module                                       User      System        Wall        Calls

--------------------------------------------------------------------------------------

**************************************************************************************

Host: pc-mm025

Timers On : Thu Dec 14 10:27:13 2023
Timers Off: Thu Dec 14 10:27:15 2023

Wall Time:        2.14 seconds

                                                       Time (seconds)
Module                                       User      System        Wall        Calls

--------------------------------------------------------------------------------------

**************************************************************************************

Host: pc-mm025

Timers On : Thu Dec 14 10:27:36 2023
Timers Off: Thu Dec 14 10:27:49 2023

Wall Time:       12.97 seconds

                                                       Time (seconds)
Module                                       User      System        Wall        Calls

--------------------------------------------------------------------------------------

**************************************************************************************

Host: pc-mm025

Timers On : Thu Dec 14 10:29:05 2023
Timers Off: Thu Dec 14 10:29:17 2023

Wall Time:       12.86 seconds

                                                       Time (seconds)
Module                                       User      System        Wall        Calls

--------------------------------------------------------------------------------------

**************************************************************************************

Host: pc-mm025

Timers On : Thu Dec 14 10:29:44 2023
Timers Off: Thu Dec 14 10:29:57 2023

Wall Time:       13.10 seconds

                                                       Time (seconds)
Module                                       User      System        Wall        Calls

--------------------------------------------------------------------------------------

**************************************************************************************

Host: pc-mm025

Timers On : Thu Dec 14 10:30:37 2023
Timers Off: Thu Dec 14 10:30:50 2023

Wall Time:       13.45 seconds

                                                       Time (seconds)
Module                                       User      System        Wall        Calls

--------------------------------------------------------------------------------------

**************************************************************************************

Host: pc-mm025

Timers On : Thu Dec 14 10:35:53 2023
Timers Off: Thu Dec 14 10:36:06 2023

Wall Time:       13.31 seconds

                                                       Time (seconds)
Module                                       User      System        Wall        Calls

--------------------------------------------------------------------------------------

**************************************************************************************

Host: pc-mm025

Timers On : Thu Dec 14 10:36:38 2023
Timers Off: Thu Dec 14 10:36:51 2023

Wall Time:       13.04 seconds

                                                       Time (seconds)
Module                                       User      System        Wall        Calls

--------------------------------------------------------------------------------------

**************************************************************************************

Host: pc-mm025

Timers On : Thu Dec 14 10:39:56 2023
Timers Off: Thu Dec 14 10:39:57 2023

Wall Time:        0.88 seconds

                                                       Time (seconds)
Module                                       User      System        Wall        Calls

--------------------------------------------------------------------------------------

**************************************************************************************

Host: pc-mm025

Timers On : Thu Dec 14 10:40:04 2023
Timers Off: Thu Dec 14 10:40:18 2023

Wall Time:       13.18 seconds

                                                       Time (seconds)
Module                                       User      System        Wall        Calls

--------------------------------------------------------------------------------------

**************************************************************************************

Host: pc-mm025

Timers On : Thu Dec 14 10:40:59 2023
Timers Off: Thu Dec 14 10:41:13 2023

Wall Time:       13.28 seconds

                                                       Time (seconds)
Module                                       User      System        Wall        Calls

--------------------------------------------------------------------------------------

**************************************************************************************

Host: pc-mm025

Timers On : Thu Dec 14 10:41:43 2023
Timers Off: Thu Dec 14 10:41:56 2023

Wall Time:       13.16 seconds

                                                       Time (seconds)
Module                                       User      System        Wall        Calls

--------------------------------------------------------------------------------------

**************************************************************************************

Host: pc-mm025

Timers On : Thu Dec 14 10:41:58 2023
Timers Off: Thu Dec 14 10:42:12 2023

Wall Time:       13.48 seconds

                                                       Time (seconds)
Module                                       User      System        Wall        Calls

--------------------------------------------------------------------------------------

**************************************************************************************

Host: pc-mm025

Timers On : Thu Dec 14 10:43:07 2023
Timers Off: Thu Dec 14 10:43:08 2023

Wall Time:        0.89 seconds

                                                       Time (seconds)
Module                                       User      System        Wall        Calls

--------------------------------------------------------------------------------------

**************************************************************************************

Host: pc-mm025

Timers On : Thu Dec 14 10:43:26 2023
Timers Off: Thu Dec 14 10:43:39 2023

Wall Time:       13.43 seconds

                                                       Time (seconds)
Module                                       User      System        Wall        Calls

--------------------------------------------------------------------------------------

**************************************************************************************

Host: pc-mm025

Timers On : Thu Dec 14 10:44:05 2023
Timers Off: Thu Dec 14 10:44:18 2023

Wall Time:       13.50 seconds

                                                       Time (seconds)
Module                                       User      System        Wall        Calls

--------------------------------------------------------------------------------------

**************************************************************************************

Host: pc-mm025

Timers On : Thu Dec 14 10:46:14 2023
Timers Off: Thu Dec 14 10:46:15 2023

Wall Time:        0.91 seconds

                                                       Time (seconds)
Module                                       User      System        Wall        Calls

--------------------------------------------------------------------------------------

**************************************************************************************

Host: pc-mm025

Timers On : Thu Dec 14 10:46:24 2023
Timers Off: Thu Dec 14 10:46:37 2023

Wall Time:       13.18 seconds

                                                       Time (seconds)
Module                                       User      System        Wall        Calls

--------------------------------------------------------------------------------------

**************************************************************************************

Host: pc-mm025

Timers On : Thu Dec 14 10:49:20 2023
Timers Off: Thu Dec 14 10:49:20 2023

Wall Time:        0.94 seconds

                                                       Time (seconds)
Module                                       User      System        Wall        Calls

--------------------------------------------------------------------------------------

**************************************************************************************

Host: pc-mm025

Timers On : Thu Dec 14 10:49:33 2023
Timers Off: Thu Dec 14 10:49:34 2023

Wall Time:        0.93 seconds

                                                       Time (seconds)
Module                                       User      System        Wall        Calls

--------------------------------------------------------------------------------------

**************************************************************************************

Host: pc-mm025

Timers On : Thu Dec 14 10:50:25 2023
Timers Off: Thu Dec 14 10:50:26 2023

Wall Time:        0.93 seconds

                                                       Time (seconds)
Module                                       User      System        Wall        Calls

--------------------------------------------------------------------------------------

**************************************************************************************

Host: pc-mm025

Timers On : Thu Dec 14 10:50:48 2023
Timers Off: Thu Dec 14 10:51:01 2023

Wall Time:       13.25 seconds

                                                       Time (seconds)
Module                                       User      System        Wall        Calls

--------------------------------------------------------------------------------------

**************************************************************************************

Host: pc-mm025

Timers On : Thu Dec 14 10:54:55 2023
Timers Off: Thu Dec 14 10:55:09 2023

Wall Time:       13.11 seconds

                                                       Time (seconds)
Module                                       User      System        Wall        Calls

--------------------------------------------------------------------------------------

**************************************************************************************

Host: pc-mm025

Timers On : Thu Dec 14 10:55:25 2023
Timers Off: Thu Dec 14 10:55:38 2023

Wall Time:       13.30 seconds

                                                       Time (seconds)
Module                                       User      System        Wall        Calls

--------------------------------------------------------------------------------------

**************************************************************************************

Host: pc-mm025

Timers On : Thu Dec 14 10:57:29 2023
Timers Off: Thu Dec 14 10:57:43 2023

Wall Time:       13.39 seconds

                                                       Time (seconds)
Module                                       User      System        Wall        Calls

--------------------------------------------------------------------------------------

**************************************************************************************

Host: pc-mm025

Timers On : Thu Dec 14 10:58:36 2023
Timers Off: Thu Dec 14 10:58:50 2023

Wall Time:       13.25 seconds

                                                       Time (seconds)
Module                                       User      System        Wall        Calls

--------------------------------------------------------------------------------------

**************************************************************************************

Host: pc-mm025

Timers On : Thu Dec 14 10:59:10 2023
Timers Off: Thu Dec 14 10:59:24 2023

Wall Time:       13.30 seconds

                                                       Time (seconds)
Module                                       User      System        Wall        Calls

--------------------------------------------------------------------------------------

**************************************************************************************

Host: pc-mm025

Timers On : Thu Dec 14 10:59:44 2023
Timers Off: Thu Dec 14 10:59:57 2023

Wall Time:       13.39 seconds

                                                       Time (seconds)
Module                                       User      System        Wall        Calls

--------------------------------------------------------------------------------------

**************************************************************************************

Host: pc-mm025

Timers On : Thu Dec 14 11:00:22 2023
Timers Off: Thu Dec 14 11:00:36 2023

Wall Time:       13.53 seconds

                                                       Time (seconds)
Module                                       User      System        Wall        Calls

--------------------------------------------------------------------------------------

**************************************************************************************

Host: pc-mm025

Timers On : Thu Dec 14 11:02:45 2023
Timers Off: Thu Dec 14 11:02:58 2023

Wall Time:       13.05 seconds

                                                       Time (seconds)
Module                                       User      System        Wall        Calls

--------------------------------------------------------------------------------------

**************************************************************************************

Host: pc-mm025

Timers On : Thu Dec 14 11:04:59 2023
Timers Off: Thu Dec 14 11:05:12 2023

Wall Time:       13.14 seconds

                                                       Time (seconds)
Module                                       User      System        Wall        Calls

--------------------------------------------------------------------------------------

**************************************************************************************

Host: pc-mm025

Timers On : Thu Dec 14 11:08:38 2023
Timers Off: Thu Dec 14 11:08:51 2023

Wall Time:       13.12 seconds

                                                       Time (seconds)
Module                                       User      System        Wall        Calls

--------------------------------------------------------------------------------------

**************************************************************************************

Host: pc-mm025

Timers On : Thu Dec 14 11:10:52 2023
Timers Off: Thu Dec 14 11:11:06 2023

Wall Time:       13.19 seconds

                                                       Time (seconds)
Module                                       User      System        Wall        Calls

--------------------------------------------------------------------------------------

**************************************************************************************

Host: pc-mm025

Timers On : Thu Dec 14 11:13:48 2023
Timers Off: Thu Dec 14 11:14:02 2023

Wall Time:       13.28 seconds

                                                       Time (seconds)
Module                                       User      System        Wall        Calls

--------------------------------------------------------------------------------------

**************************************************************************************

Host: pc-mm025

Timers On : Thu Dec 14 11:15:51 2023
Timers Off: Thu Dec 14 11:16:04 2023

Wall Time:       13.33 seconds

                                                       Time (seconds)
Module                                       User      System        Wall        Calls

--------------------------------------------------------------------------------------

**************************************************************************************

Host: pc-mm025

Timers On : Thu Dec 14 11:18:24 2023
Timers Off: Thu Dec 14 11:18:38 2023

Wall Time:       13.22 seconds

                                                       Time (seconds)
Module                                       User      System        Wall        Calls

--------------------------------------------------------------------------------------

**************************************************************************************

Host: pc-mm025

Timers On : Thu Dec 14 11:23:04 2023
Timers Off: Thu Dec 14 11:23:05 2023

Wall Time:        0.95 seconds

                                                       Time (seconds)
Module                                       User      System        Wall        Calls

--------------------------------------------------------------------------------------

**************************************************************************************

Host: pc-mm025

Timers On : Thu Dec 14 11:28:41 2023
Timers Off: Thu Dec 14 11:28:42 2023

Wall Time:        0.98 seconds

                                                       Time (seconds)
Module                                       User      System        Wall        Calls

--------------------------------------------------------------------------------------

**************************************************************************************

Host: pc-mm025

Timers On : Thu Dec 14 11:29:16 2023
Timers Off: Thu Dec 14 11:29:30 2023

Wall Time:       13.23 seconds

                                                       Time (seconds)
Module                                       User      System        Wall        Calls

--------------------------------------------------------------------------------------

**************************************************************************************

Host: pc-mm025

Timers On : Thu Dec 14 11:31:47 2023
Timers Off: Thu Dec 14 11:31:48 2023

Wall Time:        0.92 seconds

                                                       Time (seconds)
Module                                       User      System        Wall        Calls

--------------------------------------------------------------------------------------

**************************************************************************************

Host: pc-mm025

Timers On : Thu Dec 14 11:32:09 2023
Timers Off: Thu Dec 14 11:32:10 2023

Wall Time:        0.92 seconds

                                                       Time (seconds)
Module                                       User      System        Wall        Calls

--------------------------------------------------------------------------------------

**************************************************************************************

Host: pc-mm025

Timers On : Thu Dec 14 11:33:00 2023
Timers Off: Thu Dec 14 11:33:01 2023

Wall Time:        0.90 seconds

                                                       Time (seconds)
Module                                       User      System        Wall        Calls

--------------------------------------------------------------------------------------

**************************************************************************************

Host: pc-mm025

Timers On : Thu Dec 14 11:33:12 2023
Timers Off: Thu Dec 14 11:33:13 2023

Wall Time:        0.91 seconds

                                                       Time (seconds)
Module                                       User      System        Wall        Calls

--------------------------------------------------------------------------------------

**************************************************************************************

Host: pc-mm025

Timers On : Thu Dec 14 11:33:27 2023
Timers Off: Thu Dec 14 11:33:28 2023

Wall Time:        0.93 seconds

                                                       Time (seconds)
Module                                       User      System        Wall        Calls

--------------------------------------------------------------------------------------

**************************************************************************************

Host: pc-mm025

Timers On : Thu Dec 14 11:34:55 2023
Timers Off: Thu Dec 14 11:34:56 2023

Wall Time:        1.00 seconds

                                                       Time (seconds)
Module                                       User      System        Wall        Calls

--------------------------------------------------------------------------------------

**************************************************************************************

Host: pc-mm025

Timers On : Thu Dec 14 11:36:05 2023
Timers Off: Thu Dec 14 11:36:06 2023

Wall Time:        1.00 seconds

                                                       Time (seconds)
Module                                       User      System        Wall        Calls

--------------------------------------------------------------------------------------

**************************************************************************************

Host: pc-mm025

Timers On : Thu Dec 14 11:36:36 2023
Timers Off: Thu Dec 14 11:36:37 2023

Wall Time:        1.02 seconds

                                                       Time (seconds)
Module                                       User      System        Wall        Calls

--------------------------------------------------------------------------------------

**************************************************************************************

Host: pc-mm025

Timers On : Thu Dec 14 11:36:59 2023
Timers Off: Thu Dec 14 11:37:12 2023

Wall Time:       13.27 seconds

                                                       Time (seconds)
Module                                       User      System        Wall        Calls

--------------------------------------------------------------------------------------

**************************************************************************************

Host: pc-mm025

Timers On : Thu Dec 14 11:39:55 2023
Timers Off: Thu Dec 14 11:39:57 2023

Wall Time:        2.16 seconds

                                                       Time (seconds)
Module                                       User      System        Wall        Calls

--------------------------------------------------------------------------------------

**************************************************************************************

Host: pc-mm025

Timers On : Thu Dec 14 11:41:13 2023
Timers Off: Thu Dec 14 11:41:16 2023

Wall Time:        2.16 seconds

                                                       Time (seconds)
Module                                       User      System        Wall        Calls

--------------------------------------------------------------------------------------

**************************************************************************************

Host: pc-mm025

Timers On : Thu Dec 14 11:41:36 2023
Timers Off: Thu Dec 14 11:41:48 2023

Wall Time:       12.96 seconds

                                                       Time (seconds)
Module                                       User      System        Wall        Calls

--------------------------------------------------------------------------------------

**************************************************************************************

Host: pc-mm025

Timers On : Thu Dec 14 11:42:49 2023
Timers Off: Thu Dec 14 11:43:03 2023

Wall Time:       13.11 seconds

                                                       Time (seconds)
Module                                       User      System        Wall        Calls

--------------------------------------------------------------------------------------

**************************************************************************************

Host: pc-mm025

Timers On : Thu Dec 14 11:47:57 2023
Timers Off: Thu Dec 14 11:48:11 2023

Wall Time:       13.62 seconds

                                                       Time (seconds)
Module                                       User      System        Wall        Calls

--------------------------------------------------------------------------------------

**************************************************************************************

Host: pc-mm025

Timers On : Thu Dec 14 11:52:03 2023
Timers Off: Thu Dec 14 11:52:17 2023

Wall Time:       13.36 seconds

                                                       Time (seconds)
Module                                       User      System        Wall        Calls

--------------------------------------------------------------------------------------

**************************************************************************************

Host: pc-mm025

Timers On : Thu Dec 14 11:54:46 2023
Timers Off: Thu Dec 14 11:55:00 2023

Wall Time:       13.33 seconds

                                                       Time (seconds)
Module                                       User      System        Wall        Calls

--------------------------------------------------------------------------------------

**************************************************************************************

Host: pc-mm025

Timers On : Thu Dec 14 11:55:21 2023
Timers Off: Thu Dec 14 11:55:23 2023

Wall Time:        2.21 seconds

                                                       Time (seconds)
Module                                       User      System        Wall        Calls

--------------------------------------------------------------------------------------

**************************************************************************************

Host: pc-mm025

Timers On : Thu Dec 14 11:55:39 2023
Timers Off: Thu Dec 14 11:55:53 2023

Wall Time:       13.68 seconds

                                                       Time (seconds)
Module                                       User      System        Wall        Calls

--------------------------------------------------------------------------------------

**************************************************************************************

Host: pc-mm025

Timers On : Thu Dec 14 11:58:10 2023
Timers Off: Thu Dec 14 11:58:24 2023

Wall Time:       14.08 seconds

                                                       Time (seconds)
Module                                       User      System        Wall        Calls

--------------------------------------------------------------------------------------

**************************************************************************************

Host: pc-mm025

Timers On : Thu Dec 14 11:59:20 2023
Timers Off: Thu Dec 14 11:59:34 2023

Wall Time:       13.48 seconds

                                                       Time (seconds)
Module                                       User      System        Wall        Calls

--------------------------------------------------------------------------------------

**************************************************************************************
